# vtk DataFile Version 3.0
Final Converged Solution - Mesh Iteration 8
ASCII
DATASET UNSTRUCTURED_GRID
POINTS 5000 float
0.318712 0.385257 0.000000
-0.318712 0.385257 0.000000
-0.318712 -0.385257 0.000000
0.318712 -0.385257 0.000000
0.093691 0.491144 0.000000
-0.093691 0.491144 0.000000
-0.093691 -0.491144 0.000000
0.093691 -0.491144 0.000000
0.404508 0.293893 0.000000
-0.404508 0.293893 0.000000
-0.404508 -0.293893 0.000000
0.404508 -0.293893 0.000000
0.438153 0.240877 0.000000
-0.438153 0.240877 0.000000
-0.438153 -0.240877 0.000000
0.438153 -0.240877 0.000000
0.500000 0.000000 0.000000
-0.500000 -0.000000 0.000000
0.364484 0.342274 0.000000
-0.364484 0.342274 0.000000
-0.364484 -0.342274 0.000000
0.364484 -0.342274 0.000000
0.496057 0.062667 0.000000
-0.496057 0.062667 0.000000
-0.496057 -0.062667 0.000000
0.496057 -0.062667 0.000000
0.212890 0.452414 0.000000
-0.212890 0.452414 0.000000
-0.212890 -0.452414 0.000000
0.212890 -0.452414 0.000000
0.154508 0.475528 0.000000
-0.154508 0.475528 0.000000
-0.154508 -0.475528 0.000000
0.154508 -0.475528 0.000000
0.267913 0.422164 0.000000
-0.267913 0.422164 0.000000
-0.267913 -0.422164 0.000000
0.267913 -0.422164 0.000000
0.031395 0.499013 0.000000
-0.031395 0.499013 0.000000
-0.031395 -0.499013 0.000000
0.031395 -0.499013 0.000000
0.464888 0.184062 0.000000
-0.464888 0.184062 0.000000
-0.464888 -0.184062 0.000000
0.464888 -0.184062 0.000000
0.484292 0.124345 0.000000
-0.484292 0.124345 0.000000
-0.484292 -0.124345 0.000000
0.484292 -0.124345 0.000000
-0.031454 0.499951 0.000000
0.438977 0.241329 0.000000
-0.268417 0.422957 0.000000
0.365169 0.342917 0.000000
-0.496990 -0.062784 0.000000
0.319311 -0.385981 0.000000
0.405269 0.294445 0.000000
-0.093867 0.492067 0.000000
0.500940 -0.000000 0.000000
-0.213290 0.453264 0.000000
-0.154799 0.476422 0.000000
0.031454 0.499951 0.000000
0.465762 0.184408 0.000000
0.319311 0.385981 0.000000
0.365169 -0.342917 0.000000
0.405269 -0.294445 0.000000
-0.365169 0.342917 0.000000
-0.319311 0.385981 0.000000
0.268417 0.422957 0.000000
0.213290 0.453264 0.000000
-0.319311 -0.385981 0.000000
0.154799 -0.476422 0.000000
-0.485202 -0.124579 0.000000
0.154799 0.476422 0.000000
0.268417 -0.422957 0.000000
0.093867 0.492067 0.000000
-0.031454 -0.499951 0.000000
-0.500940 0.000000 0.000000
0.438977 -0.241329 0.000000
-0.438977 -0.241329 0.000000
0.093867 -0.492067 0.000000
-0.485202 0.124579 0.000000
0.485202 0.124579 0.000000
-0.496990 0.062784 0.000000
0.213290 -0.453264 0.000000
0.031454 -0.499951 0.000000
0.496990 -0.062784 0.000000
0.465762 -0.184408 0.000000
-0.465762 -0.184408 0.000000
-0.213290 -0.453264 0.000000
-0.093867 -0.492067 0.000000
-0.405269 -0.294445 0.000000
0.496990 0.062784 0.000000
0.485202 -0.124579 0.000000
-0.154799 -0.476422 0.000000
-0.365169 -0.342917 0.000000
-0.465762 0.184408 0.000000
-0.438977 0.241329 0.000000
-0.405269 0.294445 0.000000
-0.268417 -0.422957 0.000000
-0.031523 0.501039 0.000000
0.439932 0.241854 0.000000
-0.269001 0.423877 0.000000
0.365964 0.343663 0.000000
-0.498071 -0.062921 0.000000
0.320005 -0.386820 0.000000
0.406150 0.295085 0.000000
-0.094071 0.493137 0.000000
0.502029 -0.000000 0.000000
-0.213754 0.454250 0.000000
-0.155136 0.477458 0.000000
0.031523 0.501039 0.000000
0.466775 0.184809 0.000000
0.365964 -0.343663 0.000000
0.406150 -0.295085 0.000000
0.320005 0.386820 0.000000
-0.365964 0.343663 0.000000
-0.320005 0.386820 0.000000
0.269001 0.423877 0.000000
0.213754 0.454250 0.000000
-0.320005 -0.386820 0.000000
0.155136 -0.477458 0.000000
-0.486257 -0.124850 0.000000
0.155136 0.477458 0.000000
0.269001 -0.423877 0.000000
0.094071 0.493137 0.000000
-0.031523 -0.501039 0.000000
-0.502029 0.000000 0.000000
0.439932 -0.241854 0.000000
-0.439932 -0.241854 0.000000
0.094071 -0.493137 0.000000
-0.486257 0.124850 0.000000
0.486257 0.124850 0.000000
-0.498071 0.062921 0.000000
0.213754 -0.454250 0.000000
0.031523 -0.501039 0.000000
0.466775 -0.184809 0.000000
0.498071 -0.062921 0.000000
-0.466775 -0.184809 0.000000
-0.213754 -0.454250 0.000000
-0.094071 -0.493137 0.000000
-0.406150 -0.295085 0.000000
0.498071 0.062921 0.000000
-0.155136 -0.477458 0.000000
0.486257 -0.124850 0.000000
-0.365964 -0.343663 0.000000
-0.466775 0.184809 0.000000
-0.439932 0.241854 0.000000
-0.406150 0.295085 0.000000
-0.269001 -0.423877 0.000000
-0.031604 0.502329 0.000000
0.441064 0.242477 0.000000
-0.269693 0.424969 0.000000
0.366906 0.344547 0.000000
-0.499353 -0.063083 0.000000
0.320829 -0.387816 0.000000
0.407196 0.295845 0.000000
-0.094313 0.494407 0.000000
0.503322 -0.000000 0.000000
-0.214304 0.455419 0.000000
-0.155535 0.478688 0.000000
0.031604 0.502329 0.000000
0.467977 0.185285 0.000000
0.366906 -0.344547 0.000000
0.407196 -0.295845 0.000000
0.320829 0.387816 0.000000
0.269693 0.424969 0.000000
-0.366906 0.344547 0.000000
-0.320829 0.387816 0.000000
0.214304 0.455419 0.000000
-0.320829 -0.387816 0.000000
0.155535 -0.478688 0.000000
-0.487509 -0.125171 0.000000
0.155535 0.478688 0.000000
0.269693 -0.424969 0.000000
-0.031604 -0.502329 0.000000
0.094313 0.494407 0.000000
-0.503322 0.000000 0.000000
0.441064 -0.242477 0.000000
-0.441064 -0.242477 0.000000
-0.487509 0.125171 0.000000
0.094313 -0.494407 0.000000
0.487509 0.125171 0.000000
-0.499353 0.063083 0.000000
0.214304 -0.455419 0.000000
0.031604 -0.502329 0.000000
0.467977 -0.185285 0.000000
0.499353 -0.063083 0.000000
-0.467977 -0.185285 0.000000
-0.214304 -0.455419 0.000000
-0.094313 -0.494407 0.000000
-0.407196 -0.295845 0.000000
0.499353 0.063083 0.000000
-0.155535 -0.478688 0.000000
0.487509 -0.125171 0.000000
-0.467977 0.185285 0.000000
-0.366906 -0.344547 0.000000
-0.441064 0.242477 0.000000
-0.407196 0.295845 0.000000
-0.269693 -0.424969 0.000000
-0.031700 0.503862 0.000000
0.442411 0.243217 0.000000
-0.270517 0.426266 0.000000
0.368026 0.345599 0.000000
-0.500877 -0.063276 0.000000
0.321809 -0.389000 0.000000
0.408439 0.296748 0.000000
-0.094601 0.495916 0.000000
0.504858 -0.000000 0.000000
-0.214958 0.456810 0.000000
-0.156010 0.480149 0.000000
0.031700 0.503862 0.000000
0.469405 0.185851 0.000000
0.368026 -0.345599 0.000000
0.408439 -0.296748 0.000000
0.321809 0.389000 0.000000
0.270517 0.426266 0.000000
-0.368026 0.345599 0.000000
-0.321809 0.389000 0.000000
0.214958 0.456810 0.000000
-0.321809 -0.389000 0.000000
0.156010 -0.480149 0.000000
0.270517 -0.426266 0.000000
-0.488997 -0.125553 0.000000
0.156010 0.480149 0.000000
-0.031700 -0.503862 0.000000
0.094601 0.495916 0.000000
-0.504858 0.000000 0.000000
0.442411 -0.243217 0.000000
-0.442411 -0.243217 0.000000
-0.488997 0.125553 0.000000
0.094601 -0.495916 0.000000
0.488997 0.125553 0.000000
-0.500877 0.063276 0.000000
0.214958 -0.456810 0.000000
0.031700 -0.503862 0.000000
0.469405 -0.185851 0.000000
0.500877 -0.063276 0.000000
-0.469405 -0.185851 0.000000
-0.214958 -0.456810 0.000000
-0.094601 -0.495916 0.000000
-0.408439 -0.296748 0.000000
-0.469405 0.185851 0.000000
0.500877 0.063276 0.000000
-0.156010 -0.480149 0.000000
0.488997 -0.125553 0.000000
-0.368026 -0.345599 0.000000
-0.442411 0.243217 0.000000
-0.408439 0.296748 0.000000
-0.270517 -0.426266 0.000000
-0.031815 0.505686 0.000000
0.444012 0.244098 0.000000
-0.271496 0.427809 0.000000
0.369358 0.346850 0.000000
-0.502691 -0.063505 0.000000
0.322974 -0.390408 0.000000
0.409918 0.297823 0.000000
-0.094943 0.497711 0.000000
0.506686 -0.000000 0.000000
-0.215736 0.458463 0.000000
-0.156575 0.481887 0.000000
0.031815 0.505686 0.000000
0.369358 -0.346850 0.000000
0.409918 -0.297823 0.000000
0.471105 0.186524 0.000000
0.322974 0.390408 0.000000
0.271496 0.427809 0.000000
-0.369358 0.346850 0.000000
-0.322974 0.390408 0.000000
0.215736 0.458463 0.000000
0.156575 -0.481887 0.000000
-0.322974 -0.390408 0.000000
0.271496 -0.427809 0.000000
-0.490768 -0.126008 0.000000
0.156575 0.481887 0.000000
-0.031815 -0.505686 0.000000
0.094943 0.497711 0.000000
-0.506686 0.000000 0.000000
0.444012 -0.244098 0.000000
-0.490768 0.126008 0.000000
-0.444012 -0.244098 0.000000
0.094943 -0.497711 0.000000
0.490768 0.126008 0.000000
-0.502691 0.063505 0.000000
0.215736 -0.458463 0.000000
0.031815 -0.505686 0.000000
0.471105 -0.186524 0.000000
-0.471105 -0.186524 0.000000
0.502691 -0.063505 0.000000
-0.215736 -0.458463 0.000000
-0.094943 -0.497711 0.000000
-0.409918 -0.297823 0.000000
-0.471105 0.186524 0.000000
0.502691 0.063505 0.000000
-0.156575 -0.481887 0.000000
0.490768 -0.126008 0.000000
-0.369358 -0.346850 0.000000
-0.444012 0.244098 0.000000
-0.409918 0.297823 0.000000
-0.271496 -0.427809 0.000000
-0.031952 0.507855 0.000000
0.445917 0.245145 0.000000
-0.272661 0.429644 0.000000
0.370943 0.348338 0.000000
-0.504847 -0.063777 0.000000
0.324359 -0.392083 0.000000
0.411676 0.299100 0.000000
-0.095351 0.499846 0.000000
0.508859 -0.000000 0.000000
-0.216662 0.460430 0.000000
-0.157246 0.483954 0.000000
0.031952 0.507855 0.000000
0.370943 -0.348338 0.000000
0.411676 -0.299100 0.000000
0.324359 0.392083 0.000000
0.473126 0.187324 0.000000
0.272661 0.429644 0.000000
-0.370943 0.348338 0.000000
-0.324359 0.392083 0.000000
0.216662 0.460430 0.000000
0.157246 -0.483954 0.000000
-0.324359 -0.392083 0.000000
0.272661 -0.429644 0.000000
0.157246 0.483954 0.000000
-0.492873 -0.126548 0.000000
-0.031952 -0.507855 0.000000
0.095351 0.499846 0.000000
0.445917 -0.245145 0.000000
-0.508859 0.000000 0.000000
-0.492873 0.126548 0.000000
-0.445917 -0.245145 0.000000
0.095351 -0.499846 0.000000
-0.504847 0.063777 0.000000
0.216662 -0.460430 0.000000
0.492873 0.126548 0.000000
0.031952 -0.507855 0.000000
0.473126 -0.187324 0.000000
-0.473126 -0.187324 0.000000
0.504847 -0.063777 0.000000
-0.216662 -0.460430 0.000000
-0.095351 -0.499846 0.000000
-0.473126 0.187324 0.000000
-0.411676 -0.299100 0.000000
-0.157246 -0.483954 0.000000
0.504847 0.063777 0.000000
0.492873 -0.126548 0.000000
-0.370943 -0.348338 0.000000
-0.445917 0.245145 0.000000
-0.411676 0.299100 0.000000
-0.272661 -0.429644 0.000000
0.318712 0.385257 0.100000
-0.318712 0.385257 0.100000
[...]
POINT_DATA 5000
SCALARS pressure float 1
LOOKUP_TABLE default
101815.657180
101815.657180
101815.657180
101815.657180
101815.657180
101815.657180
101815.657180
101815.657180
101815.657180
101815.657180
101815.657180
101815.657180
101815.657180
101815.657180
101815.657180
101815.657180
101325.000000
101325.000000
101325.000000
101325.000000
101325.000000
101325.000000
101325.000000
101325.000000
101325.000000
101325.000000
101325.000000
101325.000000
101325.000000
101325.000000
101325.000000
101325.000000
101325.000000
101325.000000
101325.000000
101325.000000
101325.000000
101325.000000
101325.000000
101325.000000
101325.000000
101325.000000
101325.000000
101325.000000
101325.000000
101325.000000
101325.000000
101325.000000
101325.000000
101325.000000
101323.534666
101324.658570
101323.951244
101324.310620
101324.976891
101324.126602
101324.491736
101323.580520
101325.000000
101323.795565
101323.669347
101323.534666
101324.800638
101324.126602
101324.310620
101324.491736
101324.310620
101324.126602
101323.951244
101323.795565
101324.126602
101323.669347
101324.909015
101323.669347
101323.951244
101323.580520
101323.534666
101325.000000
101324.658570
101324.658570
101323.580520
101324.909015
101324.909015
101324.976891
101323.795565
101323.534666
101324.976891
101324.800638
101324.800638
101323.795565
101323.580520
101324.491736
101324.976891
101324.909015
101323.669347
101324.310620
101324.800638
101324.658570
101324.491736
101323.951244
101321.845791
101324.265053
101322.742497
101323.516072
101324.950256
101323.119963
101323.905934
101321.944494
101325.000000
101322.407390
101322.135698
101321.845791
101324.570863
101323.516072
101323.905934
101323.119963
101323.516072
101323.119963
101322.742497
101322.407390
101323.119963
101322.135698
101324.804151
101322.135698
101322.742497
101321.944494
101321.845791
101325.000000
101324.265053
101324.265053
101321.944494
101324.804151
101324.804151
101324.950256
101322.407390
101321.845791
101324.570863
101324.950256
101324.570863
101322.407390
101321.944494
101323.905934
101324.950256
101322.135698
101324.804151
101323.516072
101324.570863
101324.265053
101323.905934
101322.742497
101319.856271
101323.801484
101321.318574
101322.580083
101324.918880
101321.934128
101323.215851
101320.017231
101325.000000
101320.772098
101320.329037
101319.856271
101324.300185
101322.580083
101323.215851
101321.934128
101321.318574
101322.580083
101321.934128
101320.772098
101321.934128
101320.329037
101324.680618
101320.329037
101321.318574
101319.856271
101320.017231
101325.000000
101323.801484
101323.801484
101324.680618
101320.017231
101324.680618
101324.918880
101320.772098
101319.856271
101324.300185
101324.918880
101324.300185
101320.772098
101320.017231
101323.215851
101324.918880
101320.329037
101324.680618
101324.300185
101322.580083
101323.801484
101323.215851
101321.318574
101317.511211
101323.255073
101319.640188
101321.476828
101324.881897
101320.536378
101322.402446
101317.745554
101325.000000
101318.844570
101318.199515
101317.511211
101323.981135
101321.476828
101322.402446
101320.536378
101319.640188
101321.476828
101320.536378
101318.844570
101320.536378
101318.199515
101319.640188
101324.535010
101318.199515
101317.511211
101317.745554
101325.000000
101323.255073
101323.255073
101324.535010
101317.745554
101324.535010
101324.881897
101318.844570
101317.511211
101323.981135
101324.881897
101323.981135
101318.844570
101317.745554
101322.402446
101323.981135
101324.881897
101318.199515
101324.535010
101321.476828
101323.255073
101322.402446
101319.640188
101314.749661
101322.611617
101317.663715
101320.177629
101324.838346
101318.890381
101321.444577
101315.070419
101325.000000
101316.574706
101315.691782
101314.749661
101320.177629
101321.444577
101323.605420
101318.890381
101317.663715
101320.177629
101318.890381
101316.574706
101315.691782
101318.890381
101317.663715
101324.363541
101315.691782
101314.749661
101315.070419
101325.000000
101322.611617
101324.363541
101322.611617
101315.070419
101324.363541
101324.838346
101316.574706
101314.749661
101323.605420
101323.605420
101324.838346
101316.574706
101315.070419
101321.444577
101323.605420
101324.838346
101315.691782
101324.363541
101320.177629
101322.611617
101321.444577
101317.663715
101311.504307
101321.855433
101315.340978
101318.650822
101324.787165
101316.956019
101320.318897
101311.926621
101325.000000
101313.907179
101312.744713
101311.504307
101318.650822
101320.318897
101316.956019
101323.163883
101315.340978
101318.650822
101316.956019
101313.907179
101312.744713
101316.956019
101315.340978
101312.744713
101324.162033
101311.504307
101311.926621
101321.855433
101325.000000
101324.162033
101321.855433
101311.926621
101324.787165
101313.907179
101324.162033
101311.504307
101323.163883
101323.163883
101324.787165
101313.907179
101311.926621
101323.163883
101320.318897
101312.744713
101324.787165
101324.162033
101318.650822
101321.855433
101320.318897
101315.340978
101815.657180
101815.657180
101815.657180
101815.657180
101815.657180
101815.657180
101815.657180
101815.657180
101815.657180
101815.657180
101815.657180
101815.657180
101815.657180
101815.657180
101815.657180
101815.657180
101325.000000
101325.000000
101325.000000
101325.000000
101325.000000
101325.000000
101325.000000
101325.000000
101325.000000
101325.000000
101325.000000
101325.000000
101325.000000
101325.000000
101325.000000
101325.000000
101325.000000
101325.000000
101325.000000
101325.000000
101325.000000
101325.000000
101325.000000
101325.000000
101325.000000
101325.000000
101325.000000
101325.000000
101325.000000
101325.000000
101325.000000
101325.000000
101325.000000
101325.000000
101323.534666
101324.658570
101323.580520
101324.491736
101324.491736
101323.669347
101324.310620
101323.669347
101323.951244
101323.795565
101323.951244
101324.126602
101324.658570
101323.534666
101324.976891
101323.669347
101324.310620
101324.800638
101324.909015
101323.795565
101324.126602
101323.580520
101324.126602
101323.951244
101324.909015
101324.658570
101325.000000
101323.795565
101324.909015
101323.580520
101323.795565
101324.800638
101324.800638
101325.000000
101324.976891
101324.310620
101323.534666
101323.534666
101324.126602
101324.976891
101324.658570
101324.800638
101324.491736
101324.976891
101323.669347
101323.580520
101323.951244
101324.909015
101324.310620
101324.491736
101307.700769
101320.969188
101316.861411
101312.618742
101324.727181
101314.688955
101318.999605
101308.242105
101325.000000
101310.780851
101309.290762
101307.700769
101316.861411
101318.999605
101314.688955
101322.646403
101312.618742
101310.780851
101316.861411
101314.688955
101309.290762
101314.688955
101312.618742
101309.290762
101323.925865
101307.700769
101308.242105
101320.969188
101325.000000
101323.925865
101320.969188
101308.242105
101310.780851
101324.727181
101323.925865
101307.700769
101322.646403
101322.646403
101324.727181
101310.780851
101322.646403
101308.242105
101318.999605
101309.290762
101324.727181
101323.925865
101316.861411
101320.969188
101318.999605
101312.618742
101321.845791
101324.265053
101321.944494
101323.905934
101323.905934
101323.516072
101322.135698
101322.135698
101322.742497
101322.407390
101322.742497
101323.119963
101324.265053
101321.845791
101324.950256
101322.135698
101323.516072
101324.570863
101324.804151
101322.407390
101323.119963
101321.944494
101323.119963
101322.742497
101324.804151
101324.265053
101322.407390
101325.000000
101324.804151
101321.944494
101322.407390
101324.570863
101324.570863
101324.950256
101325.000000
101323.516072
101321.845791
101321.845791
101323.119963
101324.950256
101324.265053
101324.570863
101323.905934
101324.950256
101322.135698
101321.944494
101322.742497
101324.804151
101323.516072
101323.905934
101319.856271
101323.801484
101320.017231
101323.215851
101323.215851
101322.580083
101320.329037
101320.329037
101321.318574
101320.772098
101321.318574
101321.934128
101323.801484
101324.918880
101319.856271
101320.329037
101322.580083
101324.680618
101324.300185
101320.772098
101321.934128
101320.017231
101321.934128
101321.318574
101324.680618
101323.801484
101320.772098
101325.000000
101324.680618
101320.017231
101320.772098
101324.300185
101324.300185
101324.918880
101325.000000
101322.580083
101319.856271
101319.856271
101321.934128
101324.918880
101323.801484
101324.300185
101323.215851
101324.918880
101320.329037
101320.017231
101321.318574
101324.680618
101322.580083
101323.215851
101303.253508
101319.932953
101314.769154
101309.435787
101324.657045
101312.038207
101317.457032
101303.934010
101325.000000
101307.125413
101305.252255
101303.253508
101317.457032
101314.769154
101312.038207
101322.041344
101309.435787
101307.125413
101314.769154
101312.038207
101305.252255
101309.435787
101312.038207
101305.252255
101323.649728
101303.253508
101319.932953
101303.934009
101325.000000
101323.649728
101319.932953
101303.934009
101307.125413
101324.657045
101323.649728
101303.253508
101322.041344
101322.041344
101324.657045
101307.125413
101322.041344
101303.934009
101317.457032
101305.252255
101324.657045
101319.932953
101323.649728
101314.769154
101309.435787
101317.457032
101317.511211
101323.255073
101317.745554
101322.402446
101322.402446
101321.476828
101318.199515
101318.199515
101319.640188
101319.640188
101318.844570
101320.536378
101323.255073
101324.881897
101317.511211
101318.199515
101321.476828
101324.535010
101323.981135
101318.844570
101320.536378
101317.745554
101320.536378
101319.640188
101324.535010
101323.255073
101318.844570
101325.000000
101324.535010
101317.745554
101318.844570
101323.981135
101323.981135
101324.881897
101325.000000
101321.476828
101317.511211
101317.511211
101320.536378
101324.881897
101323.255073
101323.981135
101322.402446
101324.881897
101318.199515
101317.745554
101319.640188
101324.535010
101321.476828
101322.402446
101314.749661
101322.611617
101321.444577
101315.070419
101321.444577
101320.177629
101315.691782
101315.691782
101317.663715
101317.663715
101316.574706
101318.890381
101322.611617
101324.838346
101315.691782
101314.749661
101320.177629
101324.363541
101316.574706
101323.605420
101318.890381
101315.070419
101317.663715
101318.890381
101324.363541
101322.611617
101316.574706
101325.000000
101315.070419
101324.363541
101316.574706
101323.605420
101323.605420
101324.838346
101325.000000
101320.177629
101314.749661
101314.749661
101318.890381
101324.838346
101322.611617
101323.605420
101321.444577
101315.691782
101315.070419
101324.838346
101317.663715
101324.363541
101320.177629
101321.444577
101298.063074
101318.723555
101312.327265
101305.720934
101324.575189
101308.944498
101315.656684
101298.905997
101325.000000
101302.859122
101300.538880
101298.063074
101315.656684
101312.327265
101308.944497
101305.720934
101321.335175
101302.859122
101312.327265
101308.944497
101300.538880
101305.720934
101308.944497
101300.538880
101323.327447
101298.063074
101318.723555
101298.905997
101325.000000
101323.327447
101298.905997
101318.723555
101302.859122
101324.575189
101323.327447
101298.063074
101321.335175
101321.335175
101321.335175
101302.859122
101324.575189
101298.905997
101300.538880
101315.656684
101324.575189
101318.723555
101323.327447
101312.327265
101305.720934
101315.656683
101311.504307
101321.855433
101320.318897
101311.926621
101320.318897
101318.650822
101312.744713
101312.744713
101315.340978
101315.340978
101313.907179
101316.956019
101321.855433
101324.787165
101312.744713
101311.504307
101318.650822
101324.162033
101313.907179
101323.163883
101316.956019
101315.340978
101311.926621
101316.956019
101324.162033
101321.855433
101313.907179
101325.000000
101311.926621
101324.162033
101313.907179
101323.163883
101323.163883
101324.787165
101325.000000
101318.650822
101311.504307
101311.504307
101316.956019
101323.163883
101321.855433
101324.787165
101320.318897
101312.744713
101311.926621
101315.340978
101324.787165
101324.162033
101318.650822
101320.318897
101307.700769
101320.969188
101318.999605
101318.999605
101316.861411
101308.242105
101309.290762
101309.290762
101312.618742
101312.618742
101310.780851
101314.688955
101320.969188
101324.727181
101309.290762
101307.700769
101316.861411
101323.925865
101310.780851
101322.646403
101314.688955
101312.618742
101308.242105
101323.925865
101320.969188
101314.688955
101310.780851
101308.242105
101325.000000
101310.780851
101323.925865
101322.646403
101322.646403
101324.727181
101325.000000
101307.700769
101316.861411
101307.700769
101314.688955
101322.646403
101320.969188
101324.727181
101318.999605
101309.290762
101308.242105
101312.618742
101324.727181
101323.925865
101316.861411
101318.999605
101292.042254
101317.320672
101309.494712
101301.411764
101324.480237
101305.355844
101313.568308
101293.073584
101325.000000
101297.910293
101295.071441
101292.042254
101313.568308
101309.494712
101305.355844
101301.411764
101297.910293
101320.516030
101295.071441
101309.494712
101305.355844
101301.411764
101295.071441
101305.355844
101322.953605
101317.320672
101292.042254
101293.073584
101325.000000
101322.953605
101293.073584
101317.320672
101297.910293
101324.480237
101322.953605
101292.042254
101320.516030
101320.516030
101320.516030
101297.910293
101324.480237
101293.073584
101295.071441
101313.568308
101317.320672
101324.480237
101322.953605
101309.494712
101301.411764
101313.568308
101303.253508
101319.932953
101317.457032
101317.457032
101314.769154
101305.252255
101303.934010
101305.252255
101309.435787
101309.435787
101312.038207
101307.125413
101319.932953
101305.252255
101324.657045
101303.253508
101314.769154
101323.649728
101307.125413
101322.041344
101312.038207
101309.435787
101303.934009
101319.932953
101323.649728
101312.038207
101307.125413
101303.934009
101307.125413
101325.000000
101323.649728
101322.041344
101322.041344
101324.657045
101325.000000
101303.253508
101303.253508
101314.769154
101322.041344
101312.038207
101319.932953
101324.657045
101317.457032
101305.252255
101303.934009
101309.435787
101323.649728
101324.657045
101314.769154
101317.457032
101285.092098
101315.701249
101306.224944
101296.437458
101324.370629
101301.213269
101311.157583
101286.340915
101325.000000
101288.760082
101292.197593
101285.092098
101311.157583
101306.224944
101301.213268
101296.437458
101292.197593
101319.570446
101288.760082
101296.437458
101306.224944
101301.213268
101288.760082
101322.522060
101315.701249
101301.213268
101285.092098
101286.340915
101322.522060
101325.000000
101286.340915
101315.701249
101292.197593
101324.370629
101285.092098
101322.522060
101319.570446
101319.570446
101319.570446
101292.197593
101286.340915
101324.370629
101288.760082
101311.157583
101315.701249
101324.370629
101322.522060
101306.224944
101296.437457
101311.157583
101298.063074
101318.723555
101315.656684
101315.656684
101312.327265
101300.538880
101298.905997
101300.538880
101305.720934
101305.720934
101308.944497
101302.859122
101318.723555
101300.538880
101324.575189
101312.327265
101323.327447
101298.063074
101302.859122
101321.335175
101308.944497
101305.720934
101318.723555
101298.905997
101323.327447
101302.859122
101308.944497
101302.859122
101298.905997
101325.000000
101323.327447
101321.335175
101321.335175
101324.575189
101325.000000
101298.063074
101298.063074
101312.327265
101321.335175
101308.944497
101318.723555
101324.575189
101300.538880
101315.656684
101298.905997
101305.720934
101323.327447
101324.575189
101312.327265
101315.656683
101292.042254
101317.320672
101313.568308
101295.071441
101309.494712
101313.568308
101293.073584
101295.071441
101301.411764
101301.411764
101305.355844
101317.320672
101297.910293
101295.071441
101324.480237
101309.494712
101322.953605
101292.042254
101297.910293
101305.355844
101301.411764
101320.516030
101317.320672
101293.073584
101322.953605
101297.910293
101297.910293
101305.355844
101293.073584
101325.000000
101322.953605
101320.516030
101320.516030
101324.480237
101292.042254
101292.042254
101325.000000
101320.516030
101309.494712
101305.355844
101317.320672
101324.480237
101295.071441
101301.411764
101293.073584
101313.568308
101322.953605
101324.480237
101309.494712
101313.568308
101277.107162
101313.840717
101302.468355
101290.722548
101296.453923
101324.244701
101308.387936
101278.605848
101325.000000
101281.509052
101285.634354
101308.387936
101277.107162
101302.468355
101296.453922
101285.634354
101290.722548
101318.484079
101281.509052
101290.722548
101281.509052
101302.468355
101313.840717
101296.453922
101322.026264
101277.107162
101296.453922
101278.605848
101322.026264
101325.000000
101278.605848
101313.840717
101285.634354
101324.244701
101277.107162
101322.026264
101318.484079
101318.484079
101318.484079
101285.634354
101278.605848
101281.509052
101324.244701
101313.840717
101308.387936
101324.244701
101322.026264
101290.722548
101302.468355
101308.387936
101285.092098
101315.701249
101311.157583
101288.760082
101306.224944
101311.157583
101286.340915
101288.760082
101296.437458
101296.437458
101301.213268
101315.701249
101288.760082
101292.197593
101324.370629
101322.522060
101306.224944
101292.197593
101285.092098
101296.437457
101301.213268
101315.701249
101319.570446
101292.197593
101322.522060
101292.197593
101286.340915
101301.213268
101286.340915
101319.570446
101319.570446
101325.000000
101322.522060
101324.370629
101285.092098
101285.092098
101319.570446
101325.000000
101306.224944
101315.701249
101301.213268
101324.370629
101288.760082
101296.437457
101286.340915
101311.157583
101322.522060
101324.370629
101306.224944
101311.157583
101267.961023
101311.709618
101298.165466
101284.176551
101291.002452
101324.100461
101305.215515
101269.745914
101325.000000
101305.215515
101298.165466
101273.203545
101278.116661
101267.961023
101278.116661
101291.002452
101284.176551
101273.203545
101284.176551
101317.239728
101311.709618
101273.203545
101321.458366
101298.165466
101291.002452
101267.961023
101291.002452
101321.458366
101269.745914
101325.000000
101269.745914
101311.709618
101278.116661
101324.100461
101317.239728
101267.961023
101317.239728
101321.458366
101278.116661
101317.239728
101269.745914
101273.203545
101324.100461
101311.709618
101305.215515
101324.100461
101284.176551
101321.458366
101298.165466
101305.215515
101277.107162
101313.840717
101308.387936
101281.509052
101302.468355
101308.387936
101278.605848
101290.722548
101281.509052
101296.453922
101290.722548
101313.840717
101281.509052
101322.026264
101324.244701
101302.468355
101285.634354
101285.634354
101277.107162
101290.722548
101296.453922
101285.634354
101313.840717
101285.634354
101322.026264
101318.484079
101278.605848
101278.605848
101296.453922
101318.484079
101318.484079
101322.026264
101325.000000
101324.244701
101318.484079
101277.107162
101277.107162
101325.000000
101313.840717
101302.468355
101296.453922
101281.509052
101324.244701
101290.722548
101278.605848
101308.387936
101322.026264
101324.244701
101302.468355
101308.387936
101257.603619
101309.296289
101293.292726
101276.763638
101284.829018
101323.937119
101301.622955
101259.712619
101325.000000
101301.622955
101293.292725
101269.603364
101284.829018
101276.763638
101263.798103
101257.603618
101269.603364
101263.798103
101276.763638
101309.296289
101263.798103
101315.830581
101320.815260
101257.603618
101293.292725
101284.829018
101284.829018
101320.815260
101259.712619
101325.000000
101259.712618
101309.296289
101269.603364
101315.830581
101323.937119
101257.603618
101269.603364
101315.830581
101320.815260
101315.830581
101263.798102
101259.712618
101309.296288
101323.937119
101301.622955
101276.763638
101323.937119
101320.815260
101293.292725
101301.622955
101267.961023
101305.215515
101311.709618
101273.203545
101298.165466
101305.215515
101269.745914
101284.176551
101291.002452
101273.203545
101311.709618
101284.176551
101273.203545
101321.458366
101298.165466
101324.100461
101278.116661
101278.116661
101267.961023
101278.116661
101284.176551
101291.002452
101311.709618
101278.116661