/*--------------------------------*- C++ -*----------------------------------*\
| =========                 |                                                 |
| \\      /  F ield         | OpenFOAM: The Open Source CFD Toolbox           |
|  \\    /   O peration     | Version:  2406                                  |
|   \\  /    A nd           | Website:  www.openfoam.com                      |
|    \\/     M anipulation  |                                                 |
\*---------------------------------------------------------------------------*/
FoamFile
{
    version     2.0;
    format      ascii;
    arch        "LSB;label=32;scalar=64";
    class       volScalarField;
    location    "100";
    object      k;
}
// * * * * * * * * * * * * * * * * * * * * * * * * * * * * * * * * * * * * * //

dimensions      [0 2 -2 0 0 0 0];

internalField   nonuniform List<scalar> 
16045
(
0.054845132
0.047200168
0.041777191
0.037392791
0.034367637
0.03180047
0.030239234
0.028901836
0.028452411
0.027937448
0.028101435
0.028079742
0.028367834
0.027864468
0.027115295
0.025968139
0.024329239
0.022850552
0.021096286
0.019371868
0.018032991
0.016808489
0.016535397
0.016184291
0.016320318
0.017514766
0.022358127
0.034682756
0.10759046
1.0324957
4.800294
14.121467
10.488673
1.8708721
0.94481442
0.9056173
0.57012214
0.23351743
0.15411478
0.12710059
0.10893126
0.10369603
0.096399006
0.090613726
0.085563136
0.078741916
0.074344548
0.069667225
0.067570428
0.064505254
0.059753454
0.05576953
0.052321151
0.048546626
0.044565571
0.041544953
0.037774254
0.03457049
0.030667602
0.028604644
0.025122262
0.023123817
0.020908431
0.018849609
0.017443079
0.015686138
0.014306683
0.013050588
0.011747852
0.010576629
0.0099241951
0.0089558841
0.0081389583
0.0075148717
0.0068753288
0.0065321935
0.0061349926
0.0058704862
0.0056265189
0.005451053
0.0054109664
0.0054132897
0.0055379283
0.0057968421
0.0062880924
0.0068668024
0.0076100012
0.0085574513
0.0095360836
0.01059855
0.011516073
0.012534557
0.01396572
0.016697802
0.02124498
0.02733879
0.03283057
0.034211192
0.030043087
0.025297737
0.054851512
0.047183462
0.041825042
0.037469129
0.034566909
0.032146435
0.030787185
0.029700201
0.029409923
0.029313557
0.029733153
0.03014075
0.030516658
0.029901423
0.028963936
0.027613417
0.02575803
0.024253565
0.022313862
0.020348892
0.01912628
0.01922971
0.019182013
0.019198268
0.019496976
0.02135048
0.035778134
0.057113096
0.14215204
1.4631277
6.121681
11.250588
19.614334
34.701747
19.22451
4.9504652
4.895451
1.3566346
0.49210339
0.37300166
0.21148246
0.180367
0.17438381
0.15680076
0.14794416
0.13282032
0.11783208
0.10214804
0.091015635
0.084812367
0.075241392
0.068056224
0.063337314
0.059361088
0.0545812
0.048900719
0.044485867
0.040307385
0.035720574
0.033030999
0.028767
0.026263211
0.023671314
0.021411985
0.019693683
0.017338475
0.01592909
0.014485073
0.012905122
0.0114787
0.010771585
0.0098053811
0.0087638188
0.0080636972
0.0073830124
0.0067919824
0.0063505016
0.0059869149
0.0056614928
0.0053610551
0.0051470836
0.0049789099
0.0048203312
0.0047267133
0.0047995557
0.0049292522
0.0051014101
0.0055284779
0.006359591
0.0076442693
0.0091327052
0.010699723
0.012144544
0.01430227
0.01906434
0.027550296
0.034062355
0.039431338
0.04166701
0.041083566
0.054900971
0.047180707
0.041846582
0.037424682
0.034529089
0.032077028
0.030683419
0.029739772
0.029183748
0.029446417
0.030067611
0.030280758
0.030511026
0.030137954
0.02934493
0.02802667
0.026615097
0.024986108
0.023004906
0.022378282
0.021884714
0.021420838
0.02021743
0.021038007
0.021191984
0.022578516
0.036871244
0.051435525
0.1425
0.9875926
3.9899795
8.0212022
13.652055
29.691572
26.651337
21.069322
22.172388
13.217109
2.5735322
2.7141167
1.3648562
0.16439052
0.22300342
0.18951662
0.18015943
0.16394804
0.14296999
0.12264423
0.10081216
0.090273646
0.078086479
0.068599788
0.064027576
0.060418482
0.055909969
0.049026337
0.044476828
0.040058565
0.03582997
0.03324291
0.028832451
0.025945402
0.023300473
0.021596501
0.01985374
0.017178081
0.015951929
0.014560393
0.012913421
0.011493415
0.010709217
0.0098367694
0.0087771538
0.0080966151
0.0075331637
0.0068389513
0.0064105196
0.0060293873
0.0057059954
0.005380792
0.0051523032
0.00495953
0.0047463562
0.0046280753
0.0045010697
0.0044563506
0.0044411917
0.0045175438
0.0045741671
0.0048809804
0.0053172883
0.0062854191
0.0080492139
0.010008783
0.012581703
0.016896115
0.024468412
0.030294526
0.031981209
0.032558765
0.054798751
0.047306746
0.041817964
0.037550164
0.034671286
0.032329645
0.03118337
0.030511525
0.030651504
0.030997388
0.031432745
0.033923721
0.034573365
0.035139781
0.033488454
0.032655903
0.032097359
0.030238276
0.031409963
0.031429391
0.03055295
0.029957249
0.029579578
0.029091106
0.028302482
0.030076737
0.036863702
0.055909424
0.11318114
0.40570765
1.8005914
3.280026
4.899817
8.8841931
16.447738
15.037273
15.996732
11.884728
9.6038023
16.367056
9.4227647
0.72875837
0.31752254
0.23044229
0.21644839
0.19527031
0.17705836
0.15863106
0.13541887
0.11345566
0.092562919
0.078086665
0.072398304
0.068705579
0.063630732
0.053879593
0.04661014
0.042458142
0.038145301
0.035396731
0.030675687
0.027265894
0.024287051
0.023015097
0.021305069
0.018101668
0.016406355
0.015473889
0.01380662
0.012009127
0.011004933
0.01045596
0.0093789303
0.0086969018
0.008105012
0.0074130437
0.0069345683
0.0064382396
0.0060672663
0.0056830489
0.0053660071
0.0050938523
0.0047143287
0.0045537962
0.0043865378
0.0043199524
0.0043110959
0.0042606212
0.0042283706
0.0043493385
0.0044268599
0.0046346548
0.0050407634
0.0058070546
0.0074772389
0.010762565
0.01529545
0.019516273
0.020821357
0.021251697
0.054611687
0.047632906
0.041624313
0.037940533
0.034733847
0.032838584
0.031757526
0.031452596
0.031833917
0.032955889
0.034607822
0.037340749
0.043031161
0.044262804
0.04576426
0.048214645
0.05451332
0.048740516
0.042619042
0.044624591
0.044159654
0.041256745
0.038113566
0.039282411
0.038574263
0.041538567
0.047069752
0.064002081
0.10589518
0.25064398
0.95189754
1.6930085
2.222078
3.0235345
5.805273
6.1295103
6.3592965
5.4207446
5.1290068
6.1126035
5.448411
6.1235001
1.1748987
0.25969202
0.22294666
0.20787761
0.18687005
0.16506033
0.1463007
0.1245032
0.10034936
0.082844378
0.075152696
0.069792628
0.065432409
0.055205133
0.048851228
0.043209265
0.038760078
0.035588657
0.032210103
0.028201558
0.025058576
0.023593383
0.021334113
0.019755049
0.01711297
0.016347454
0.01429271
0.013066294
0.011672346
0.010690876
0.0098281317
0.0091513926
0.0082939817
0.007909041
0.0073456705
0.0069879229
0.0064306939
0.0061934064
0.0057964507
0.0053411647
0.0047535404
0.0044311044
0.0042067189
0.0041331622
0.0040327908
0.0039875919
0.0041110647
0.0041264458
0.0041731114
0.0042269619
0.0043596721
0.0045942447
0.0050813179
0.0059867011
0.0073293804
0.0086380695
0.0090606885
0.0091995387
0.054565608
0.047755013
0.041659058
0.038201429
0.034980483
0.033374444
0.032623954
0.033017461
0.034210113
0.036623934
0.039808396
0.046134703
0.052606487
0.057920269
0.060544668
0.072931699
0.080328424
0.071627571
0.074860804
0.072776601
0.068650917
0.064655712
0.05670602
0.052797632
0.053298091
0.057214691
0.065160474
0.072302847
0.11268302
0.23577349
0.68640167
1.3332128
1.7743756
2.0899202
2.7593851
3.49371
3.5844293
3.5407317
2.9371096
2.9863191
3.3564554
3.5222486
1.2206253
0.4357664
0.24765968
0.2205063
0.19828852
0.16848094
0.14755142
0.12695317
0.10638549
0.094339913
0.085805033
0.0746704
0.063985898
0.057641516
0.05330924
0.043622255
0.040218687
0.036639601
0.032198913
0.02776717
0.026626523
0.023924786
0.022137042
0.020608883
0.018355789
0.016644671
0.014695118
0.013625954
0.012443744
0.011093245
0.010266537
0.0098678012
0.0087971314
0.0083637446
0.0078981576
0.0075521763
0.0070827482
0.0069091338
0.0066864189
0.0059343779
0.0050049612
0.0045566535
0.0041335052
0.0040384946
0.0038911139
0.003814732
0.003827365
0.0038561016
0.0038987374
0.0040262658
0.0040759285
0.0042008461
0.0043938452
0.0047954322
0.0053609476
0.0057724557
0.0058830797
0.0059106007
0.054820867
0.047592223
0.04198352
0.038302318
0.035572151
0.034011157
0.034441056
0.035853117
0.038198139
0.045237781
0.052926798
0.068622183
0.081195978
0.090688873
0.10689626
0.13703374
0.14596234
0.15686839
0.13329662
0.11485613
0.099982192
0.10046907
0.095435692
0.089509974
0.084296585
0.088672928
0.097672278
0.099876041
0.11721863
0.20489049
0.58110483
1.1457305
1.8569712
2.5584049
2.7990169
3.0276694
3.1581851
3.1065249
2.8543571
2.629939
2.7139133
2.8114325
1.4382822
0.52693677
0.32389748
0.25593935
0.20403598
0.17142927
0.14485587
0.12561064
0.11110418
0.10195405
0.095025492
0.084432248
0.069114353
0.062524322
0.057704364
0.047901329
0.043420505
0.038429752
0.034867281
0.02888713
0.028075874
0.024551885
0.022434004
0.020412768
0.018793392
0.017647496
0.015343374
0.014213642
0.012772939
0.011799593
0.010985677
0.010601963
0.0092394643
0.0084805416
0.008537619
0.0082639998
0.0079246816
0.0078792433
0.0078452478
0.0067765746
0.0055052142
0.0046564916
0.0041722258
0.0039430504
0.0038499189
0.0037421941
0.0036426194
0.0036532316
0.0036718293
0.0037935258
0.0038549039
0.0039655631
0.0040763225
0.0042798276
0.004557682
0.0047270886
0.0047793204
0.0047633115
0.05492266
0.047526208
0.042307875
0.038566218
0.036019292
0.036150579
0.037544887
0.042636397
0.051965391
0.076987378
0.097531618
0.13630792
0.16693444
0.18935203
0.22376764
0.27219053
0.28308549
0.35368791
0.30083018
0.26117661
0.25133983
0.19520622
0.16336597
0.14017255
0.13101621
0.12632979
0.12866858
0.12572893
0.15485735
0.18462613
0.47034293
0.91503004
1.6863873
3.0982826
4.1124329
4.5280222
4.19411
4.2508213
3.531196
3.7821289
2.596277
2.757517
1.1096717
0.61607929
0.47565967
0.35295386
0.23485797
0.18058212
0.15233739
0.13550016
0.12000157
0.098125221
0.10381251
0.084761348
0.071038103
0.063863802
0.051795175
0.05122987
0.045463743
0.039499884
0.035688296
0.028615399
0.028698196
0.025956437
0.022531291
0.021270697
0.018130692
0.018143553
0.015688211
0.01501947
0.012709404
0.012272268
0.011258786
0.0109546
0.010129949
0.008936523
0.0088413232
0.009097621
0.008762099
0.0089911832
0.0098066572
0.0078636022
0.0064875114
0.004692906
0.0042214897
0.0038548977
0.0037265276
0.0036714074
0.0035924165
0.0035589664
0.0036199831
0.0036551073
0.0037015686
0.0037743764
0.0038546995
0.0039975727
0.0041849795
0.0042700091
0.0042542403
0.00417707
0.055004003
0.047578064
0.042625744
0.03874156
0.037336852
0.040098744
0.050653429
0.077414759
0.11743353
0.19915293
0.2545593
0.36261282
0.43242572
0.51544537
0.60789084
0.95337494
0.92722027
0.75293088
0.93709749
0.94170088
0.73611726
0.50679712
0.39035089
0.31833552
0.27375438
0.22482369
0.22281603
0.20558839
0.25764933
0.26840773
0.47154953
0.80497752
1.7188299
2.7366791
5.0339174
5.3356261
5.4004664
4.6086292
4.8014765
4.0229971
3.2702771
2.0320265
1.250045
1.0343833
0.8378591
0.71509049
0.2971323
0.1993709
0.16755669
0.14800382
0.13629765
0.11220488
0.095475186
0.081360003
0.063301207
0.05660724
0.050391658
0.05007529
0.039775277
0.034932284
0.031035698
0.03091962
0.025476056
0.022089279
0.021135034
0.01922374
0.019576141
0.016480794
0.015975579
0.01516538
0.013259277
0.012780357
0.011739668
0.011199768
0.01023353
0.0098874282
0.0096129536
0.0098637361
0.010126332
0.010585109
0.012335585
0.010470859
0.0084300337
0.0047200899
0.0042478249
0.0038265849
0.0037053772
0.0036631182
0.0035848663
0.0035209965
0.0035059058
0.0035758897
0.0036289385
0.0036938162
0.003745349
0.003854638
0.004014332
0.0041276621
0.0041084785
0.0039978335
0.054928594
0.047784244
0.04267345
0.038621476
0.040971966
0.061911113
0.14455522
0.28163507
0.43256668
0.63685523
0.76498719
1.0307037
1.1919012
1.4607462
1.7502486
2.4012683
2.501614
2.2449774
2.7802166
2.3343553
1.8928652
1.4380256
1.071668
0.78684632
0.59790491
0.49891842
0.38587426
0.36066757
0.35704402
0.36279086
0.43692816
0.79290319
1.6736722
2.815802
4.8448929
5.390549
5.1377868
5.4552897
4.0619467
3.2139249
2.4934584
1.7290239
1.4954385
1.4126666
1.7444284
1.2441089
0.33299911
0.20630907
0.16891493
0.14217377
0.13444316
0.10676974
0.087259551
0.080283262
0.069277623
0.05730209
0.047927299
0.043034915
0.039330764
0.035317058
0.030698943
0.0268603
0.026304855
0.021949119
0.021590452
0.020245014
0.017398731
0.016480246
0.015926154
0.013654947
0.013427675
0.012731999
0.011653622
0.01015606
0.0096633728
0.01016379
0.0099930847
0.010187042
0.010620893
0.011906031
0.017199345
0.014676923
0.011345958
0.0048367412
0.0043164468
0.0040070257
0.0037265113
0.0036180849
0.0035801952
0.0035536062
0.0035495734
0.0035397635
0.0036071752
0.0036632071
0.0037209164
0.0038072297
0.0039241983
0.0040138217
0.0039979527
0.0038609072
0.054628032
0.048855498
0.041179621
0.041913192
0.061888353
0.2444185
0.78557439
1.3446005
1.7168662
2.0254916
2.2407283
2.7740971
3.1063007
3.9433941
4.5329018
5.0399014
6.2833762
6.2246428
6.3361363
5.7398682
5.5822854
4.8736977
3.7239149
2.7530214
1.8543356
1.2982694
0.88638953
0.69616462
0.61746474
0.58175593
0.53670427
0.67914327
1.3519739
2.3503345
4.2918388
5.3500344
4.9888829
4.7661496
3.7809894
2.7529905
2.1539285
1.6077953
1.4083027
1.381705
1.2068321
0.58866692
0.32284373
0.20411314
0.17353293
0.15159872
0.11672801
0.10682424
0.093664472
0.074782779
0.066782012
0.057533289
0.048873922
0.043538536
0.037299529
0.032536988
0.030064239
0.027566266
0.024475351
0.02290812
0.021483839
0.019232902
0.017396442
0.016548169
0.015590489
0.013873165
0.013514857
0.012644628
0.011800236
0.010515346
0.010532104
0.010127936
0.0097485888
0.010085806
0.011851637
0.015202739
0.026067874
0.036833003
0.015995105
0.005222163
0.0043838985
0.0040604964
0.0038702123
0.0037505232
0.0036803459
0.0036583941
0.0036474217
0.0036394416
0.0036521196
0.0036774508
0.0037306043
0.0037904646
0.0039030281
0.0039571981
0.0039241703
0.0037659224
0.054914249
0.048290163
0.042055389
0.05007251
0.23308043
1.5266352
4.5924895
5.5833156
6.3694128
6.2346771
6.1862013
6.7748759
7.4865303
9.4199651
10.340578
11.312476
10.142465
9.1945344
8.9507839
8.6708093
8.9803682
10.079626
10.168577
9.5770022
8.2689505
6.529729
4.3576474
2.6589049
1.7297362
1.1835472
0.90425909
0.80624805
1.0545838
1.7516023
3.2962443
3.849143
4.0248534
4.0028567
3.34572
2.4343644
1.9640824
1.6035945
1.4286418
1.4507769
0.92975781
0.42294501
0.24199327
0.17409275
0.1501903
0.12689705
0.12079594
0.10502983
0.084223555
0.074672584
0.067000823
0.055614201
0.049168835
0.039565284
0.036006898
0.03138794
0.029141575
0.027403059
0.025275667
0.023164361
0.019929447
0.018858301
0.01772371
0.016747819
0.014676527
0.014045001
0.012380869
0.012278922
0.011566977
0.011262105
0.01137125
0.010559575
0.010487103
0.011055625
0.012004134
0.015139136
0.027040901
0.065493021
0.034702008
0.0086256477
0.0048411088
0.0043956266
0.0039418032
0.003832066
0.0037662938
0.0037424588
0.003735705
0.0037324595
0.0037600977
0.0037711158
0.0037996687
0.0038268692
0.0038963895
0.0039616116
0.0039366156
0.0037724011
0.056935972
0.045634658
0.04474514
0.10618023
1.4186144
9.8347649
20.929891
18.561438
20.983863
18.531739
14.830561
15.131954
15.971669
16.960154
15.177524
12.683802
10.844191
9.3276718
7.9805778
6.8947301
6.017424
6.7217713
7.7436033
7.5001459
7.6696774
6.7745421
5.9409658
4.3890954
3.1269784
2.4067701
1.7415826
1.2431563
1.1412514
1.3430728
1.858253
2.5753263
2.4078658
2.7497337
2.5159263
1.8782914
1.4950705
1.1935181
0.90549296
0.74405835
0.48587821
0.29858911
0.22622261
0.16957518
0.14173665
0.12489272
0.11902507
0.10360228
0.085600276
0.075785451
0.066258522
0.056830928
0.047647673
0.040101241
0.035453081
0.031980862
0.029068706
0.02647362
0.02513365
0.021460284
0.020772116
0.01835367
0.017339652
0.016477627
0.015018953
0.013794546
0.012595388
0.012441861
0.011715177
0.011355579
0.01021328
0.010367755
0.010615928
0.0098922735
0.011558276
0.013430862
0.017313285
0.056060359
0.095247747
0.029282444
0.01027466
0.0055145145
0.0043817371
0.0039356033
0.0038259796
0.0038106631
0.0037993004
0.0038139107
0.0038516751
0.0038728016
0.0038994559
0.0039309688
0.0039781351
0.004053331
0.0040647465
0.0038911112
0.05682601
0.045865774
0.050904224
0.62231099
7.9230442
47.398059
74.775534
49.763314
41.56802
33.914604
28.353537
28.87068
24.064034
19.218858
15.841063
13.000054
11.292898
9.5031434
7.7264929
6.1192152
4.8068351
3.7794366
3.337586
3.1546757
3.5497024
3.4973319
3.3936192
2.8241083
2.2695381
1.9180969
1.5176876
1.2186759
1.1133064
1.1487865
1.4552917
1.5770012
1.614839
1.4613919
1.3310925
1.2023269
1.1131949
0.89831556
0.68998288
0.528469
0.35848421
0.23817748
0.18820933
0.15001098
0.13030774
0.11854487
0.10474017
0.096573471
0.087049492
0.074140648
0.065610644
0.055854536
0.049836542
0.040079839
0.035226532
0.031793139
0.029109745
0.027408103
0.022857879
0.021223267
0.019446147
0.018211155
0.016600535
0.015579427
0.014250996
0.014045564
0.013101411
0.012140194
0.011542183
0.011612412
0.010548496
0.010471609
0.010154757
0.010725822
0.010707727
0.011291707
0.01403484
0.016524499
0.034382435
0.10537971
0.053831518
0.011793024
0.0050345541
0.0044049749
0.0039257164
0.0039511324
0.0039186132
0.0039342606
0.0039557359
0.0039785661
0.0040079087
0.0040460689
0.004118962
0.0042374361
0.0042849096
0.0040883507
0.056759367
0.045977113
0.098019083
4.0568237
40.356752
178.24709
145.65085
93.155718
63.235573
49.6846
42.946514
34.64843
27.444754
23.351469
23.243013
20.510623
19.316549
16.626918
13.120008
10.040623
6.7529908
4.2128268
2.753149
1.9745454
1.6546624
1.4812202
1.492274
1.3873789
1.226506
1.1190313
0.93416234
0.77769892
0.67347195
0.72119638
0.69646966
0.76452833
0.9729202
0.73796515
0.59155876
0.49394431
0.41192353
0.34262529
0.29081792
0.23173094
0.18574678
0.15668808
0.14086137
0.13005607
0.1218271
0.11337784
0.10259094
0.096800892
0.087265821
0.077533637
0.061354482
0.054275698
0.045566518
0.041493939
0.034869634
0.031842625
0.029541054
0.026113867
0.022987226
0.020514969
0.018710373
0.018002434
0.016887152
0.01581253
0.0151455
0.013940089
0.013149771
0.011549042
0.011866017
0.011014902
0.010512752
0.010442544
0.0097277754
0.010434763
0.01070128
0.011019498
0.012226684
0.012825166
0.015629502
0.030327022
0.064116408
0.070146217
0.0083500857
0.0054532568
0.0041387574
0.0041225485
0.0040430362
0.0040773306
0.0040949967
0.0041245873
0.0041453171
0.0041948273
0.0042333522
0.0043567679
0.0044435259
0.0042501147
0.055426596
0.047098111
0.5939359
23.112159
160.48273
364.13916
271.54762
150.49679
94.142638
71.632008
55.478318
48.109333
51.781088
47.309556
59.377478
61.300755
64.126553
52.092609
41.42345
35.300465
28.10109
17.637751
9.2642971
4.5047457
2.332976
1.5648298
1.1869985
0.99311691
0.93183897
0.83244947
0.76106071
0.62328819
0.5216296
0.47089797
0.42496945
0.38799319
0.41049768
0.37357024
0.33150503
0.29402402
0.25542538
0.21669951
0.18472314
0.16024836
0.14520593
0.13783779
0.13358493
0.12930262
0.12008872
0.1108237
0.10182051
0.092338999
0.082671834
0.072852866
0.061968402
0.054781099
0.046378914
0.041448988
0.036433363
0.031017702
0.02753622
0.025544924
0.02302853
0.021020709
0.019362689
0.01828769
0.016675619
0.015834874
0.014138977
0.013761497
0.012342109
0.011535755
0.011573753
0.010719202
0.010429787
0.010202654
0.010180105
0.010429078
0.010867038
0.01116003
0.011248253
0.012885532
0.012991913
0.024307276
0.047718667
0.04309747
0.01529318
0.0068314153
0.0047927876
0.0044210384
0.0042559734
0.0042796096
0.0043021761
0.0043134225
0.0043495977
0.0044044289
0.0045004769
0.0045221571
0.004660407
0.004428961
0.052090651
0.055341219
4.6085515
100.65715
478.62245
608.88173
408.796
216.81375
127.00682
96.364715
93.848395
103.02427
102.07383
100.03752
103.38076
113.06922
115.48276
110.02704
103.67107
118.98104
99.15009
75.721413
47.75868
23.361392
9.7606501
4.0187581
1.9047165
1.143399
0.88752134
0.75335851
0.68928721
0.60789204
0.52719799
0.45544055
0.40690235
0.33198676
0.3105334
0.27278163
0.24112509
0.21377534
0.1920923
0.19102413
0.18372186
0.16988535
0.17240101
0.17307921
0.16292853
0.15104626
0.13543635
0.12204077
0.1086665
0.096441222
0.083185677
0.071537607
0.063287356
0.055219011
0.047118967
0.039399421
0.036037995
0.030924912
0.027703813
0.024179522
0.022754769
0.020856013
0.018692019
0.017181569
0.016068512
0.01498363
0.013904839
0.012953558
0.012482878
0.011710358
0.011208785
0.011011384
0.010811448
0.010581136
0.011032594
0.010839567
0.011117912
0.011475571
0.012167508
0.012203351
0.012561585
0.022331624
0.047261108
0.040466236
0.029497173
0.0073145827
0.0061623992
0.0046580018
0.0045659143
0.0044811358
0.0045194575
0.004568185
0.0045907761
0.0046455952
0.0047463077
0.0048469724
0.0050365017
0.0048076844
0.044424625
0.19763374
29.509976
328.38251
966.7013
880.35708
506.98408
260.79112
170.35156
153.49644
160.41079
167.67322
161.04753
162.76221
161.87744
176.14702
161.42319
166.45122
176.58881
162.51568
138.75794
110.82865
81.72414
51.11638
26.39645
11.852007
5.1155776
2.3407139
1.3005401
0.90257511
0.74035118
0.62665676
0.52954934
0.44319917
0.38669185
0.32611098
0.2844336
0.25171935
0.22711042
0.20653825
0.19033861
0.1677897
0.16866398
0.16786166
0.16407825
0.16607407
0.16709971
0.15139297
0.14020456
0.13526741
0.12295732
0.10617143
0.090905423
0.07744545
0.065790362
0.057155399
0.04849714
0.04029073
0.034254536
0.030931187
0.027261564
0.024641373
0.021839329
0.020576373
0.018597174
0.017035947
0.015947047
0.014716848
0.013801474
0.013139259
0.012336998
0.011932005
0.011643801
0.011380735
0.011147171
0.010896451
0.011295103
0.011148699
0.011536567
0.011468634
0.012406347
0.012832642
0.013099243
0.030946287
0.044441037
0.040349201
0.017199566
0.00860097
0.0063195084
0.0052386962
0.0049115748
0.004794803
0.0047899648
0.0048381896
0.0048643934
0.0049286568
0.005089587
0.0052170242
0.0054229817
0.0052160192
0.28950251
2.3743128
122.10847
855.41052
1323.4996
1158.5573
618.19381
308.12982
227.04317
211.21211
209.16431
210.27563
219.0161
211.21586
213.8844
209.1166
212.65201
226.77706
248.56828
234.14769
213.62081
187.92736
149.61223
95.792242
53.011569
28.123666
13.792747
6.1712142
2.8728711
1.6002041
1.0941643
0.87763506
0.72724856
0.57508719
0.44025672
0.3432157
0.28686836
0.25153654
0.22596376
0.20674749
0.1924417
0.17113331
0.16738724
0.15996368
0.1730731
0.17097875
0.174066
0.15870541
0.13717317
0.11433184
0.098177413
0.085306061
0.074430903
0.066070024
0.057618518
0.050778347
0.045623705
0.040425026
0.03529374
0.031245635
0.028156966
0.023950954
0.02213618
0.01962979
0.018203737
0.016933743
0.015455818
0.014522146
0.013582782
0.012931914
0.01249775
0.012143991
0.011841687
0.011595927
0.011250844
0.011784432
0.011403683
0.012482848
0.012454854
0.011927816
0.013515939
0.013884979
0.013663069
0.034951652
0.057828291
0.028458241
0.01975207
0.0080330746
0.0074691906
0.0057186934
0.0053536023
0.0050638481
0.0050266166
0.0050998066
0.0051847487
0.0052035365
0.005340607
0.0054723083
0.0057215741
0.0055361176
1.7209541
15.024398
325.96806
1425.0366
1654.348
1332.8543
621.29433
364.20124
283.09563
255.76951
253.51545
248.21947
233.06219
218.40135
214.12626
220.35277
235.38194
257.82593
289.67785
307.11362
324.31349
320.60195
282.61076
199.23467
106.02032
48.499071
23.49938
12.332292
6.5164872
3.6042401
2.16141
1.4355319
1.058845
0.79141043
0.57544283
0.4225559
0.32227017
0.27010165
0.23589525
0.215616
0.20077806
0.18328458
0.17273562
0.15941158
0.1515257
0.13956708
0.13060805
0.11864094
0.10784575
0.09820601
0.088937643
0.079635246
0.070573688
0.062502817
0.056164826
0.049407745
0.044938837
0.04051623
0.035837255
0.031136773
0.027969168
0.024442384
0.021895009
0.020020621
0.018146458
0.016544581
0.015476302
0.01462002
0.013727888
0.01315084
0.012717147
0.012363201
0.012069406
0.011887421
0.011567153
0.012173181
0.01189896
0.01210312
0.012120382
0.013144817
0.013092499
0.013688401
0.014163633
0.035363248
0.051092296
0.034101487
0.015640228
0.0094671467
0.0087408732
0.006347382
0.0058657468
0.0053857794
0.0052504048
0.0053103233
0.0054071533
0.0054776027
0.0055732393
0.0057282055
0.0060411378
0.0058564946
7.4789709
65.694968
695.4033
1733.8852
1772.5793
1340.3202
654.51903
404.36163
299.09793
275.23573
264.78773
247.98374
220.15295
197.36698
200.87751
215.75036
229.77408
255.48124
282.51336
310.69074
350.54479
413.18847
443.72914
394.78082
226.21493
95.246953
38.531023
17.48066
9.1372278
5.4708688
3.6525408
2.3924041
1.6369149
1.2215778
0.88468535
0.62054921
0.42719935
0.31545764
0.25723465
0.23363388
0.22599052
0.2259108
0.21357869
0.18298188
0.15732119
0.14317611
0.13072188
0.11870564
0.10530632
0.097123148
0.087627167
0.078308578
0.069411675
0.06196591
0.055110857
0.048929322
0.043033008
0.038046224
0.034137571
0.031106242
0.027949784
0.024905371
0.022295812
0.020040036
0.018276778
0.016834854
0.015380001
0.014434604
0.013800996
0.013305933
0.012933245
0.012565626
0.012224706
0.012705066
0.012950548
0.012937613
0.012574222
0.013469929
0.013752085
0.013487974
0.013867707
0.014835284
0.014981949
0.027745284
0.049357235
0.027385732
0.01441119
0.012453335
0.010459531
0.00682083
0.0060894528
0.0058495863
0.0054942676
0.0055912927
0.0056889109
0.0057162204
0.0058657235
0.0060009037
0.006376721
0.0062266757
16.451707
144.65507
1026.1983
1789.6761
1749.9747
1147.8244
627.26126
376.50647
289.51468
275.62731
256.67519
225.64895
175.61923
158.77849
169.42007
190.2489
210.47118
232.86225
253.2481
285.05694
330.50377
397.35457
480.21074
503.74732
413.93354
189.64273
70.632263
28.742221
13.299959
7.4503996
4.9919705
3.6793191
2.5631019
1.6764942
1.1243409
0.75964981
0.50543651
0.35593252
0.29349716
0.30287005
0.28728384
0.24889445
0.22917615
0.20086379
0.16738105
0.14626083
0.1342586
0.11893616
0.10539217
0.095155882
0.085757804
0.077436022
0.067343658
0.060565355
0.053411133
0.047400773
0.041833648
0.03689998
0.032794216
0.029178684
0.025911033
0.023093152
0.020792583
0.018846385
0.017359158
0.016368922
0.015311804
0.014650788
0.01411416
0.013592941
0.013273239
0.012603526
0.013228819
0.013324189
0.012607003
0.013197138
0.013581013
0.01382119
0.014144198
0.014505207
0.015407553
0.015680467
0.020326898
0.037302875
0.048319417
0.027007049
0.015566596
0.013266925
0.010773332
0.0076149515
0.0065948221
0.0063212317
0.0058927534
0.00589963
0.0059983579
0.0061007563
0.0062984603
0.0063513469
0.0067699685
0.0066567558
22.918298
194.65155
1173.6005
1804.5546
1667.2726
968.359
454.51396
323.66093
293.76415
268.3362
236.96346
169.75965
120.20004
106.66888
126.03981
145.15537
156.46246
170.15504
184.46666
213.2057
264.05834
332.18143
419.77378
498.68593
491.07043
286.46167
103.20177
38.509765
17.857752
9.2610712
5.8413267
4.3676261
3.3571898
2.4564853
1.6219685
1.0381562
0.62388656
0.41361077
0.31277976
0.32451565
0.3118436
0.30387021
0.28164627
0.25902806
0.19699901
0.1572721
0.14744861
0.12509039
0.10678517
0.09578108
0.086546958
0.077283224
0.066602697
0.060401647
0.052784542
0.046736435
0.041125202
0.036259993
0.032084648
0.028501144
0.025276183
0.022549088
0.020321606
0.018453691
0.017080067
0.016182626
0.015368259
0.014585412
0.013992672
0.013482349
0.013071746
0.012575704
0.013035162
0.012738939
0.012584317
0.013417043
0.013505679
0.013276637
0.013615388
0.014181985
0.015280936
0.016129678
0.024339515
0.040197651
0.042286294
0.025996339
0.017087116
0.028166823
0.012483119
0.0083397295
0.0079282308
0.0067915443
0.006284068
0.0062939106
0.0063568274
0.0065156839
0.0066799031
0.0067750737
0.0072555515
0.0071602054
5.7579701
213.05735
1306.9787
1711.8019
1452.1989
705.94828
379.71576
313.90417
287.97653
253.83567
188.3318
109.74363
75.985958
74.301804
89.288862
92.539311
100.42364
110.67944
125.18911
152.9431
195.6147
253.06524
323.60796
410.55946
440.06626
355.29487
133.45936
42.104156
18.988752
11.033178
7.0514449
4.9599346
3.7834517
2.7724525
1.9148097
1.3019785
0.77175714
0.51083816
0.35566715
0.3273761
0.29877937
0.27364949
0.26055564
0.2436736
0.19773976
0.17081555
0.1463879
0.13341874
0.11155043
0.096592149
0.083664195
0.074584991
0.06622207
0.057745641
0.050490812
0.043896076
0.038822696
0.034329828
0.030481255
0.027033145
0.024107795
0.021691811
0.019707724
0.01813931
0.016916618
0.015924608
0.015208781
0.014509261
0.013962929
0.013271998
0.013629295
0.013750628
0.013701902
0.01391533
0.013915297
0.014056355
0.014064445
0.014240243
0.014465856
0.01516035
0.016953783
0.017749431
0.026227795
0.036252369
0.034376453
0.034850291
0.018587804
0.027856309
0.013698866
0.0096523133
0.010241012
0.007661835
0.0066641352
0.0067711414
0.0068356632
0.0070063008
0.0073317719
0.0072718912
0.0077482673
0.0076958246
10.213135
260.21049
1260.2829
1528.9755
1166.3555
537.89423
346.34761
305.93112
275.78993
219.38091
131.35521
69.054543
55.25006
54.038399
55.850238
53.189382
56.514497
57.95277
65.744216
83.604641
115.55918
162.07538
221.248
283.71707
338.64168
305.57174
133.60958
50.550276
22.357392
11.975585
8.3157107
6.1990964
4.6787223
3.3669482
2.2462503
1.4622695
0.84400906
0.59063135
0.46009209
0.39802196
0.30524184
0.26471131
0.23791817
0.23286061
0.21646283
0.18726182
0.15133611
0.12845625
0.11908693
0.10261613
0.086335105
0.074193541
0.06453739
0.056509062
0.049552203
0.042937046
0.037987731
0.03356977
0.029766465
0.026337902
0.023477857
0.021151986
0.0192962
0.017839228
0.016708293
0.015797002
0.015060359
0.01447654
0.013983637
0.013277308
0.013641013
0.013769107
0.013738263
0.013958689
0.014145416
0.013870375
0.013838505
0.014811284
0.014940813
0.015086898
0.017313887
0.021204794
0.035451184
0.04154306
0.034478235
0.032941978
0.018785125
0.027252027
0.022965271
0.010920552
0.012742952
0.0092989566
0.0082716612
0.0072142063
0.007713813
0.0077948328
0.0081218309
0.0080311024
0.0085961165
0.0087036931
10.460524
290.70881
1206.0662
1332.5523
904.54343
452.84493
331.36589
297.91107
255.06831
178.80525
95.52428
56.675766
50.733586
48.878066
47.890567
47.247693
45.992844
44.919604
45.114758
46.029954
49.061668
58.512548
75.376137
96.780576
124.94282
122.16285
63.985353
32.240675
17.664688
11.209357
8.5790931
6.6599009
5.0777107
3.6175932
2.5306105
1.7073334
0.88678798
0.71052553
0.49686978
0.41139189
0.37795482
0.29805772
0.25922555
0.23060268
0.20886082
0.17718233
0.15849008
0.13380313
0.11711119
0.098944487
0.08363695
0.074317547
0.063104123
0.056360485
0.048273522
0.042379794