/*--------------------------------*- C++ -*----------------------------------*\
| =========                 |                                                 |
| \\      /  F ield         | OpenFOAM: The Open Source CFD Toolbox           |
|  \\    /   O peration     | Version:  2406                                  |
|   \\  /    A nd           | Website:  www.openfoam.com                      |
|    \\/     M anipulation  |                                                 |
\*---------------------------------------------------------------------------*/
FoamFile
{
    version     2.0;
    format      ascii;
    arch        "LSB;label=32;scalar=64";
    class       volScalarField;
    location    "100";
    object      k;
}
// * * * * * * * * * * * * * * * * * * * * * * * * * * * * * * * * * * * * * //

dimensions      [0 2 -2 0 0 0 0];

internalField   nonuniform List<scalar> 
10720
(
0.0012908399
0.0012578693
0.0013569997
0.0014723557
0.0015777741
0.0017478531
0.0018010128
0.0020265774
0.0021217584
0.0023364225
0.0025157462
0.0027443957
0.0030711384
0.0032641517
0.003767827
0.0040544296
0.0046400997
0.0051101933
0.0059970077
0.0067464117
0.0079507394
0.0091221921
0.011194994
0.013232256
0.01634839
0.021733263
0.028217181
0.058171512
0.099626632
0.22338597
0.39442413
0.69358246
0.8461397
0.91700094
1.2140486
3.0437252
4.0807382
4.1312084
2.6478474
0.0013439512
0.0013831232
0.0014694091
0.0015845672
0.0016400316
0.0018236045
0.0018739541
0.0020556123
0.0021444539
0.0023929602
0.0024974007
0.0027764353
0.0029267517
0.0032950922
0.0034957939
0.0039775846
0.0042684109
0.0049355873
0.0053456073
0.0063043282
0.0069232566
0.0084750441
0.0095518089
0.012624498
0.014855588
0.020297364
0.025108583
0.033298783
0.055608033
0.10657478
0.22335694
0.46404312
0.77308837
0.92676676
1.0381559
1.6804949
3.1697341
3.7116736
2.6018423
0.0010810577
0.0010833676
0.0011354638
0.0012050175
0.0012930549
0.0014278011
0.0015238017
0.001740796
0.0018388125
0.0020719658
0.0023096821
0.0024870371
0.0030306968
0.0032896236
0.0040121439
0.004483711
0.0058399688
0.0067093067
0.0092564628
0.010383227
0.013211424
0.014315671
0.017164538
0.018600924
0.022596687
0.026611207
0.033169398
0.047261116
0.064144766
0.11811439
0.24389827
0.61051315
1.5717241
4.0504384
8.0634379
14.811096
16.575969
15.619055
14.637399
0.0011300975
0.0011598385
0.0012604195
0.001303839
0.0014238108
0.0015187145
0.0015723042
0.0017921359
0.0018599559
0.0021332339
0.0022510048
0.0026291234
0.0028268797
0.0033978057
0.0037226865
0.0046177026
0.0050319798
0.0060149937
0.0065187228
0.007742668
0.0084006887
0.010010939
0.010803537
0.012904478
0.01399748
0.017771522
0.020723405
0.03083362
0.039856203
0.065644803
0.11777676
0.27941059
0.73095949
1.9958179
4.3639543
8.7375748
14.708058
15.339758
15.245549
0.00092609022
0.00089568538
0.00094277132
0.0009994916
0.0010694206
0.0011598724
0.0012315754
0.0013283232
0.0014407778
0.0015471199
0.001718075
0.001891609
0.0020542437
0.002371867
0.0025210546
0.0031084924
0.003467292
0.0039534884
0.0047438149
0.0048754337
0.0061930246
0.0062982243
0.0079390522
0.0090302186
0.010544639
0.014260546
0.01477528
0.021208398
0.021491093
0.035776374
0.032946918
0.084053457
0.1518754
0.69769062
1.0566338
1.9057314
2.9132939
6.1415982
11.040193
0.00097321133
0.0010308937
0.0010813736
0.001156524
0.0011900994
0.0012392498
0.0013183555
0.0014183739
0.0014773343
0.0016669963
0.0017420076
0.0019857354
0.0020932268
0.0024454868
0.0026012856
0.0031132828
0.0033859346
0.0043439793
0.0048577641
0.0061635886
0.0066298054
0.0079623779
0.0083019957
0.009787363
0.01011674
0.012277293
0.012649381
0.016434646
0.017036791
0.023309723
0.029434312
0.020518609
0.081123093
0.17310592
0.72781169
0.89710116
2.0838452
3.8058888
9.1989911
0.00084728216
0.00083218708
0.00086889526
0.00091681139
0.00098418766
0.0010513969
0.0011094427
0.001191816
0.0012957568
0.0014042354
0.001548584
0.0016976051
0.0018444698
0.0020254287
0.0023567968
0.002566832
0.0028924815
0.0034513467
0.0040012022
0.0044758914
0.0050100836
0.0053586564
0.0057485672
0.0060529926
0.006256806
0.0065758507
0.0064918582
0.0072006533
0.0068403097
0.0091576235
0.0089573049
0.016860789
0.021444486
0.062085322
0.17946246
0.18421176
0.37035403
0.61735407
4.9122037
0.00089253294
0.00093339183
0.0010069068
0.001025397
0.0010482092
0.0011281859
0.0011732689
0.0012566265
0.0013672721
0.0014503327
0.0016167654
0.0017238839
0.0019113142
0.0021137708
0.0023276747
0.0026942005
0.0030820399
0.0033838235
0.0037025628
0.0039392924
0.004177721
0.0043230064
0.0045069128
0.0046140102
0.0048005489
0.0049236895
0.0051535728
0.0052996409
0.0056747979
0.0054920396
0.0071858859
0.0066831621
0.014921156
0.014298945
0.093618671
0.075520284
0.28020923
0.31059757
2.9787059
0.00075557684
0.00074489191
0.00078057731
0.00082572292
0.00087682739
0.0009184215
0.00096746059
0.0010511502
0.0011381156
0.0012206962
0.0013334837
0.0014255004
0.001525069
0.0017071713
0.0018463675
0.0020146125
0.0023326564
0.0026429828
0.0029459554
0.0031828871
0.0034426526
0.0036329792
0.0038286529
0.0040645659
0.0041717329
0.0044088125
0.0044478857
0.0046516013
0.0046405832
0.0048056212
0.0052237498
0.0051300004
0.0076199036
0.0077900456
0.027070817
0.024864589
0.069169337
0.09065628
1.6274361
0.00079667701
0.00086876632
0.00088546785
0.00091238459
0.00098105439
0.0010156998
0.0010888275
0.0011426959
0.0012486013
0.0013310482
0.0014068806
0.0015549893
0.0016669732
0.0018510025
0.002046151
0.002206039
0.0023775011
0.0025080376
0.0026792726
0.0027865361
0.0029543661
0.0030356631
0.0031949163
0.0032567604
0.003428759
0.0035119672
0.0036979262
0.0037908567
0.0039715089
0.0039614059
0.0042486303
0.004197076
0.0051771035
0.0052014603
0.013126381
0.012356638
0.039422465
0.04667018
0.81858792
0.00070465811
0.0007008533
0.0007345258
0.00077463699
0.00080803632
0.00084342904
0.00090085369
0.00097495145
0.0010378934
0.001119185
0.001195698
0.0012847515
0.0013796354
0.0015004175
0.0016303408
0.0017637278
0.002018463
0.002333533
0.0026018387
0.0028329925
0.0030185439
0.0031615865
0.0032820601
0.0033826471
0.0034563488
0.0035141163
0.0035470591
0.0035639891
0.003567761
0.003559596
0.0036366276
0.0035793269
0.0039494379
0.0038897382
0.0056686527
0.0052519824
0.010397994
0.015107899
0.57228785
0.00074938493
0.00078044353
0.00081619075
0.00086861364
0.00089519449
0.00095677314
0.0010008416
0.0010694265
0.0011215837
0.0012011189
0.0012899525
0.0014181358
0.0015483112
0.0016642133
0.0018428215
0.0020226472
0.002179369
0.0023304632
0.0024680248
0.0025830443
0.0026955783
0.0027886827
0.002844974
0.0028795903
0.0028984602
0.0028998208
0.0029024649
0.0028970185
0.0028977164
0.0028908416
0.0029209751
0.0028713234
0.003047452
0.0030020195
0.0037995859
0.0035980433
0.0063474189
0.0073873692
0.26728457
0.00062945518
0.00063430853
0.00066915655
0.000698165
0.00072387618
0.00076322564
0.00081105628
0.00085681303
0.00091229259
0.00097458548
0.0010415344
0.0011086437
0.0011817868
0.001278347
0.0013705464
0.0014991302
0.0017194196
0.0019260332
0.0020838501
0.0022042184
0.0023035032
0.0023846672
0.0024516806
0.0025163478
0.0025702893
0.0026213424
0.002665543
0.0027145252
0.0027659807
0.0028015043
0.0028657122
0.0028557794
0.0029652772
0.0029328209
0.0031462166
0.0030660147
0.0035979607
0.0041543573
0.21835311
0.00066624793
0.00071654008
0.00075444466
0.00078435924
0.00083277374
0.00087644688
0.00091330256
0.00096568156
0.0010485836
0.0011005738
0.0012026952
0.001293223
0.0013592803
0.001499715
0.001630365
0.0017507147
0.00184665
0.0019285836
0.0019959069
0.0020500588
0.0020898424
0.0021139682
0.0021290099
0.0021361958
0.0021505903
0.0021621327
0.0021881931
0.0022022227
0.00223686
0.0022490582
0.0022903014
0.0022879139
0.0023463738
0.0023233648
0.0024472462
0.0023962187
0.0027085528
0.0028093477
0.094646226
0.00058392033
0.00059944527
0.00063280766
0.00065640803
0.00067991708
0.00071980303
0.0007510167
0.00079409253
0.00084627716
0.00090200462
0.00096006154
0.0010215401
0.0010884129
0.0011672061
0.0012515313
0.00138336
0.0015556786
0.0016918801
0.0017976511
0.0018793857
0.0019480261
0.0020090972
0.0020590841
0.0021064028
0.0021412185
0.0021697797
0.0021875553
0.0022077102
0.0022319319
0.0022525967
0.0023000275
0.0023142822
0.0023699754
0.0023831183
0.0024125341
0.0023743066
0.0024506111
0.0025288561
0.088320646
0.00062520301
0.00066391916
0.00069758283
0.00074032202
0.00076428739
0.00080783337
0.00085528166
0.00092281823
0.00096493511
0.001027632
0.0011080359
0.0011627802
0.0012475303
0.0013709843
0.0014878007
0.0015947301
0.0016749456
0.0017495352
0.0018054525
0.0018492197
0.0018860056
0.0019120514
0.0019154442
0.0019228702
0.0019250219
0.0019254681
0.0019238433
0.0019200257
0.0019150285
0.001908901
0.0019042957
0.001899614
0.0019043543
0.0019025958
0.0019151801
0.0018852536
0.0019347592
0.0019433204
0.035848473
0.00051871141
0.00054142792
0.00057451432
0.00059161656
0.00061651039
0.00064613075
0.00067255587
0.00070887987
0.00075403894
0.0008046146
0.00085862054
0.00090850523
0.00096289183
0.0010264691
0.0011002055
0.0012027857
0.0013152273
0.0014029043
0.0014731149
0.0015304318
0.0015837719
0.0016296684
0.0016710294
0.0017066028
0.0017391898
0.0017696297
0.0017993617
0.001832758
0.0018676737
0.0019056331
0.001950852
0.0019882269
0.0020312558
0.0020615914
0.002067783
0.002060009
0.0020703348
0.0020868634
0.039193042
0.00055306957
0.00059571279
0.00063730953
0.00066263334
0.00070588934
0.00075811016
0.00079181357
0.00083500947
0.00087602609
0.00093510921
0.00098690541
0.0010410114
0.001120949
0.0012146875
0.0012850442
0.0013465132
0.0013855521
0.001423048
0.0014484429
0.0014715986
0.0014898961
0.001508447
0.0015232901
0.0015375352
0.0015530952
0.0015695052
0.0015870991
0.0016050187
0.0016244439
0.001643414
0.0016600755
0.0016713603
0.0016797476
0.0016851576
0.0016867147
0.0016758959
0.0016851956
0.0016813123
0.014935507
0.000481922
0.00050821616
0.00053745517
0.00055567421
0.00058004914
0.00060554865
0.0006286618
0.00066398376
0.00070779184
0.0007593576
0.00080927845
0.00085076259
0.00090007716
0.00095645727
0.0010249363
0.001115275
0.0011972945
0.0012629584
0.0013131712
0.0013608128
0.0014045918
0.0014475474
0.0014849831
0.0015177324
0.0015436094
0.001565689
0.0015843419
0.0016031781
0.001623069
0.0016455875
0.0016753012
0.001704455
0.0017383317
0.0017740596
0.0017836627
0.0017844272
0.001801735
0.0018103548
0.018765028
0.00051436742
0.00055743135
0.00058625358
0.00062453885
0.00066680635
0.00069706666
0.00073279895
0.00077924997
0.00081750509
0.00087133393
0.00091202462
0.00097629118
0.0010464645
0.0011145074
0.0011665311
0.0012055741
0.001230032
0.0012581057
0.0012723039
0.0012917781
0.0013066173
0.0013192818
0.001333699
0.0013464787
0.0013670178
0.0013861342
0.0014040285
0.0014097834
0.0014141272
0.0014166827
0.0014222618
0.001425837
0.0014321473
0.0014376081
0.0014401974
0.0014355932
0.0014474935
0.0014469159
0.0068764944
0.00042005352
0.00045182532
0.0004785303
0.00049574872
0.00052021021
0.00054073543
0.00056734225
0.00060146126
0.00064546116
0.00069427828
0.00072832603
0.00076328016
0.00080543883
0.00085497908
0.00091381765
0.00097669509
0.0010355362
0.0010858871
0.0011298004
0.00117548
0.001215213
0.0012551551
0.0012928975
0.0013285824
0.001360859
0.0013900187
0.0014171431
0.0014447886
0.001473038
0.0015029202
0.0015331778
0.0015578111
0.0015822504
0.0016025673
0.001607312
0.0016075913
0.0016223422
0.0016283922
0.00942219
0.00045521697
0.00049108696
0.00052910192
0.00056268794
0.00060043308
0.00063644983
0.00066900988
0.00070729459
0.00074334696
0.00078571629
0.00082894351
0.00087896397
0.00092794009
0.00097327972
0.0010076539
0.0010334012
0.0010584929
0.0010801417
0.0010973624
0.0011174881
0.0011308854
0.0011489158
0.0011614429
0.0011782424
0.0011971892
0.0012199592
0.0012415129
0.0012655296
0.0012853474
0.0012930001
0.0012956255
0.0012970465
0.0012958702
0.0012961975
0.0012954761
0.0012950259
0.0012992784
0.0012987186
0.0035865659
0.0003901753
0.00041968387
0.00044130108
0.00046292968
0.00048670703
0.00050807043
0.0005373429
0.00057007338
0.00061544657
0.00065842859
0.0006839321
0.00071894461
0.00075807206
0.00080329068
0.00085607837
0.00090650126
0.0009504467
0.00099111986
0.0010338226
0.0010754565
0.0011134488
0.0011509601
0.0011827792
0.0012122377
0.0012382116
0.0012584395
0.001277883
0.0012949781
0.0013150009
0.0013380521
0.0013647061
0.0013896151
0.0014135781
0.0014348908
0.0014414493
0.0014427492
0.0014586225
0.0014645038
0.0050108925
0.00041669955
0.00045522591
0.0004873332
0.00052769195
0.00056406074
0.00059104818
0.0006299165
0.00066436511
0.00070335388
0.00074259044
0.00078403996
0.0008283305
0.00086922292
0.00090420569
0.00092370128
0.00094209877
0.00095471081
0.00096312152
0.00097383323
0.00098058403
0.00098980509
0.0010000505
0.0010095705
0.0010233614
0.0010361041
0.0010561389
0.0010798667
0.0011023569
0.00112917
0.0011482314
0.0011610053
0.0011680321
0.0011699275
0.0011725643
0.0011749029
0.0011759396
0.0011799705
0.0011798085
0.0021869401
0.00033591409
0.00036387639
0.0003829085
0.00040577864
0.00042991928
0.00045548895
0.00048616797
0.00051808635
0.00056194839
0.00058889904
0.00061296353
0.00064707051
0.00067865095
0.00071484066
0.00075226737
0.00079127051
0.00083048812
0.00086882315
0.00090936244
0.00094710011
0.00098574124
0.0010217321
0.0010574531
0.0010909482
0.0011230876
0.0011510978
0.0011766501
0.0012007751
0.0012236083
0.0012496911
0.0012753359
0.0012982525
0.001314908
0.0013254134
0.0013265352
0.0013264851
0.0013381712
0.0013419472
0.0029235526
0.00036454841
0.00039680118
0.0004359116
0.00047011207
0.00050146683
0.00053616788
0.00057246698
0.00059917174
0.00064070635
0.00066850784
0.00070518456
0.00073267506
0.00076621547
0.00078893349
0.00081068119
0.000834937
0.00085164971
0.0008723517
0.00088550967
0.00089908289
0.00090899141
0.00091953245
0.00092875137
0.00094032719
0.00094966201
0.00096676272
0.00098152326
0.0010086292
0.0010363581
0.0010636019
0.001070323
0.0010769149
0.0010774221
0.0010799004
0.0010820008
0.0010825911
0.0010862874
0.0010872938
0.0015562214
0.00030951885
0.00033378028
0.00034922402
0.00037486633
0.00040028791
0.00042809381
0.00045867353
0.00049161727
0.0005296272
0.00054973258
0.00057711582
0.00060781156
0.00063584359
0.00066769865
0.00069675584
0.00072941034
0.00076543962
0.00080312724
0.00084141337
0.00087601849
0.00090724799
0.00093791408
0.00096469018
0.00099187338
0.0010161075
0.001039434
0.0010604986
0.001080572
0.0011001099
0.0011231531
0.0011484177
0.0011759991
0.0012001057
0.0012178017
0.0012278011
0.001228866
0.0012402611
0.0012442241
0.0019568797
0.00033281836
0.00036591956
0.00040306763
0.00043568721
0.00047004905
0.00050701513
0.00053376754
0.00056797186
0.00059789701
0.00061748661
0.00064805105
0.00067288171
0.00069909495
0.00071769589
0.00073953597
0.00075949374
0.00077496159
0.00079393209
0.00080444197
0.00081916379
0.00082789463
0.000838706
0.0008478144
0.0008571665
0.00086814893
0.00087648705
0.00089288016
0.00090767978
0.0009316559
0.00095706755
0.00098255269
0.00099786609
0.0010019375
0.0010058322
0.0010087055
0.0010105502
0.001013464
0.0010118777
0.0012476296
0.00026747775
0.00028537996
0.00029734491
0.00032466257
0.00035159803
0.00037919601
0.00040938357
0.00044077003
0.00047053275
0.00048954177
0.00051520342
0.00053504486
0.00055688338
0.00057861886
0.00060486051
0.0006359749
0.00067027531
0.00070779386
0.00074374241
0.00077913112
0.00081333435
0.00084528648
0.00087745496
0.00090734377
0.00093675871
0.00096471726
0.00099044054
0.0010140378
0.0010333689
0.0010511588
0.0010677605
0.0010865244
0.0011049976
0.001120892
0.001133533
0.0011366959
0.0011487296
0.0011535394
0.0015116255
0.00028707119
0.00031574213
0.00035231656
0.00038015056
0.0004192141
0.00045074737
0.00047672034
0.00050910542
0.00053051718
0.00055796662
0.00058818234
0.00061118097
0.00063497491
0.00065593841
0.00067656835
0.00069925846
0.0007155325
0.00073786821
0.00075217472
0.00077060772
0.00078406547
0.00079665424
0.00081156297
0.00082056532
0.00083511064
0.00084403537
0.00086015804
0.00087593353
0.00089521124
0.00091615523
0.00093191259
0.00094094004
0.00094656649
0.00095074352
0.00095392104
0.00095754903
0.0009596425
0.00096034504
0.0010932276
0.00024938226
0.00026256302
0.00027330378
0.00030023652
0.00032664844
0.00035303689
0.00038344766
0.00041228476
0.00043982914
0.00045955771
0.00047896252
0.0004938099
0.00051328481
0.00053147893
0.00055797792
0.00058861543
0.00062425455
0.00065650936
0.00068740423
0.00071416834
0.00073939948
0.0007624209
0.0007869916
0.00081115169
0.00083699749
0.00086273573
0.00089045527
0.00091733205
0.00094368393
0.00096752067
0.00098895948
0.0010088727
0.001028387
0.0010429587
0.0010572494
0.0010617315
0.0010741548
0.0010785414
0.00127207
0.00026417971
0.00029087124
0.00032438728
0.00035099639
0.00039213157
0.00041939029
0.00044393879
0.00047072898
0.00049451061
0.00051864483
0.00053967746
0.00056153102
0.00058248589
0.00060115663
0.00061940983
0.00063712256
0.00065372549
0.00067270655
0.00068973128
0.00070937636
0.00072750998
0.00074499122
0.00076414964
0.00077766531
0.0007937812
0.00080541622
0.00081972161
0.00083320177
0.00085764036
0.00087060184
0.00088342504
0.00089019747
0.0008904906
0.00089453522
0.00089772074
0.00090052988
0.00090242075
0.00090370321
0.00099174417
0.00022457208
0.00023164738
0.00023913344
0.00025961282
0.00028243546
0.00030847849
0.00033752714
0.00036399381
0.0003892194
0.00040750089
0.0004273073
0.00044628138
0.00046353978
0.00048132164
0.00050307691
0.00052766789
0.00055585705
0.00058537993
0.00061482386
0.00064145799
0.00066883278
0.00069394866
0.00071921542
0.00074335511
0.00076841321
0.00079377083
0.00082058279
0.00084723209
0.00087377539
0.00089843192
0.00091982748
0.00093893917
0.00095651935
0.00097036855
0.00098442705
0.00099064699
0.0010049799
0.0010098295
0.001133588
0.00023391224
0.00025371218
0.00027989297
0.0003021609
0.00034256248
0.00036341464
0.00039292951
0.00042249277
0.00044498245
0.00046768863
0.0004918312
0.00051761351
0.00053718868
0.000557999
0.00057611417
0.00059551245
0.00061441614
0.0006327041
0.00065267314
0.00067194981
0.00069026934
0.00070926014
0.00072847297
0.00074296838
0.00076231513
0.00077503435
0.00079380956
0.00080839569
0.00082614623
0.00084244637
0.00084812785
0.00085263227
0.00085688809
0.00085561983
0.00085677419
0.00085900904
0.00086199775
0.0008609743
0.00092299041
0.00021512822
0.00021937387
0.00022503319
0.00024072698
0.00026120273
0.00028784237
0.00031442618
0.00034004696
0.00036248498
0.00038181224
0.0004038979
0.00042453777
0.00044181515
0.00045983092
0.0004799455
0.000498667
0.00051862529
0.00054118797
0.00056412156
0.00059150065
0.00061706122
0.00064345147
0.00066514038
0.00068686304
0.00070553509
0.00072553307
0.00074781189
0.00077210509
0.00079887305
0.00082559437
0.00085164169
0.00087442659
0.00089386353
0.00090839154
0.00092147583
0.00092798582
0.00094013705
0.00094390069
0.0010227436
0.00022128091
0.00023596786
0.00025720645
0.00027897727
0.0003160447
0.00033539924
0.00036811964
0.00039090919
0.00040906325
0.00043528474
0.0004645753
0.00048447198
0.00050419156
0.00052136079
0.00053676737
0.00055334301
0.00056701652
0.00058311177
0.00059911075
0.00061563693
0.00063280027
0.00065130556
0.000668236
0.00068575555
0.00070214634
0.00071854216
0.00073501923
0.00075188058
0.00076891156
0.00078626991
0.00080332325
0.0008149278
0.00081684249
0.00082005733
0.00082224106
0.00082465331
0.000824336
0.00082505873
0.00086976123
0.00020429299
0.00020567831
0.00020818589
0.00021693998
0.00023278049
0.00025713991
0.00027680063
0.00029953923
0.00031999494
0.00034245954
0.00036914898
0.0003938291
0.00041208581
0.00042765612
0.00044005295
0.00045482253
0.00047800556
0.00050211899
0.00052870766
0.0005565339
0.00058205994
0.0006077251
0.00063055997
0.00065281392
0.00067174732
0.00069065127
0.00070986318
0.00073104039
0.00075362413
0.00077765862
0.00080087429
0.00082158468
0.00084102795
0.00085558004
0.00086894827
0.00087643351
0.00088876599
0.00089271705
0.00095420596
0.00020647903
0.00021382969
0.00022806063
0.00024605895
0.00027592355
0.00029434397
0.00032370703
0.00034494634
0.00037020706
0.0004010838
0.00042027866
0.00044346282
0.00045930258
0.00048170453
0.00049987137
0.00051852069
0.00053771925
0.00055304664
0.00057047205
0.00058447354
0.00060065301
0.00061553124
0.00063089265
0.0006442152
0.00065941285
0.00067355107
0.00068877226
0.00070437642
0.00071983526
0.000734493
0.0007498513
0.0007623393
0.00077455698
0.00078287974
0.000787363
0.0007915557
0.00079395706
0.0007930599
0.00082967263
0.00020042516
0.00020084071
0.00020285105
0.00020925673
0.00022178385
0.00024275973
0.00025838119
0.00027859749
0.00029833469
0.0003215443
0.0003496227
0.00037193469
0.00038876168
0.00040124956
0.00040936722
0.00042638656
0.00044801916
0.0004660368
0.0004874339
0.00050666988
0.00052547273
0.00054629963
0.00056621259
0.00058820695
0.00060830399
0.00062994351
0.00065250391
0.00067701932
0.00070375771
0.00072950158
0.00075541507
0.00077646796
0.00079610288
0.00080882537
0.00082188152
0.00082716605
0.00083857689
0.00084278897
0.00089610558
0.00020181903
0.00020704497
0.000217046
0.00023253862
0.00025603609
0.00027558151
0.00030211083
0.00032352024
0.00035287833
0.0003709449
0.0003919648
0.00040672784
0.00042678563
0.00044555611
0.00046378645
0.00048353727
0.00050091355
0.00051775944
0.0005346157
0.00055121487
0.00056644562
0.00058242309
0.0005952141
0.00060845998
0.00061933566
0.00063074138
0.00064121575
0.00065460497
0.00066859039
0.00068340894
0.0006974452
0.00071166189
0.00072352072
0.0007348266
0.00074241771
0.00075006537
0.0007566056
0.00075745709
0.00079074354
0.00019690045
0.00019668254
0.00019748206
0.00020000571
0.00020530003
0.00021924318
0.00023032171
0.00024827476
0.00026882156
0.0002923298
0.00031795217
0.00033598854
0.00035210071
0.0003636961
0.00037899567
0.00039735379
0.00041472637
0.00043325091
0.0004499259
0.00046596089
0.0004823506
0.00049813498
0.00051411652
0.00052988202
0.00054613086
0.00056376499
0.00058505756
0.00061041406
0.0006391158
0.00067070929
0.00070101812
0.00073059722
0.00075441506
0.0007728225
0.00078687365
0.00079138896
0.00079930683
0.00080173204
0.00084721122
0.00019721669
0.00019943316
0.00020274699
0.00021290369
0.000229115
0.0002454174
0.00026710028
0.0002901325
0.00031003458
0.00033108775
0.00035331354
0.00037502634
0.00039676834
0.00041632232
0.00043516955
0.00045190701
0.00047040948
0.00048789732
0.00050656692
0.00052386319
0.00054068228
0.0005559864
0.00057025133
0.00058257243
0.00059543516
0.00060677835
0.0006198668
0.00063295332
0.00064673496
0.00066077394
0.00067292719
0.00068356109
0.00069232572
0.00069948983
0.0007079646
0.00071203533
0.00072216334
0.00072421064
0.00075567916
0.00019551633
0.00019495227
0.00019546773
0.00019708494
0.00020083567
0.00021028777
0.00021996975
0.00023589732
0.00025726565
0.00028092597
0.0003001446
0.00031284045
0.00033213978
0.00034819933
0.00037047942
0.0003857989
0.00040036513
0.00040908148
0.00042065547
0.00043365255
0.00044888882
0.00046513392
0.00048058254
0.00049480009
0.00050803545
0.00052068236
0.00053532886
0.00055352117
0.0005764026
0.0006036654
0.00063381231
0.0006638483
0.00069313197
0.00071644259
0.00073764588
0.00074893192
0.00076259992
0.00076620337
0.00080458861
0.00019537903
0.00019685285
0.00019871586
0.00020722511
0.00021816006
0.00023114998
0.00024994911
0.00027020065
0.00028907664
0.00031394782
0.00033722194
0.00035450293
0.00037234081
0.0003870192
0.00040319242
0.00041623317
0.00043332594
0.00044634193
0.00046408144
0.00048075956
0.0004957219
0.0005127151
0.00052577401
0.00053964627
0.0005524813
0.00056507591
0.00057971277
0.00059519302
0.00061161044
0.00062613794
0.00063828431
0.00064964892
0.00065861147
0.00066600769
0.00067291632
0.00067579867
0.00068541362
0.00068722454
0.00071633977
0.00019485849
0.00019419935
0.00019399934
0.00019418879
0.0001955769
0.00019959222
0.00020673721
0.00021653267
0.00023392265
0.00025356313
0.00026873159
0.00028922481
0.00031173562
0.000332884
0.00034954581
0.00036262455
0.00037246601
0.00038008775
0.00039329529
0.00040883518
0.00042708358
0.00044288452
0.00045938024
0.00047279818
0.00048580012
0.0004960119
0.00050864071
0.00052131318
0.00054059867
0.00056173358
0.00058977136
0.00061695103
0.00064609778
0.00066872026
0.00069242565
0.00070519891
0.00072434196
0.00073061088
0.00076630886
0.00019426654
0.00019448406
0.00019490041
0.00019875603
0.00020174759
0.00021182203
0.00022547136
0.00024218155
0.00026089514
0.00028747454
0.00030619458
0.00032700936
0.00034784201
0.00036665371
0.00038492519
0.00040181133
0.00041548311
0.00042746536
0.00044030272
0.0004512205
0.00046509512
0.00047783914
0.00049389577
0.00050664179
0.000522728
0.00053855341
0.00055438377
0.00057245471
0.00058887947
0.00060464313
0.00061583108
0.00062712132
0.00063444124
0.00064304141
0.00064797619
0.00065463941
0.0006580532
0.00065974355
0.00068241212
0.00019466641
0.00019358517
0.00019356229
0.00019326772
0.00019409158
0.00019607111
0.00020138837
0.00020837948
0.00022195451
0.00023947087
0.00025376973
0.00027269312
0.00029037482
0.00030225449
0.00031316215
0.00032193549
0.00033246736
0.00034359822
0.00035943286
0.00037516508
0.00039072148
0.00040493549
0.00042041065
0.0004316538
0.00044501639
0.00045470294
0.0004678425
0.00048134742
0.00049994959
0.00052155803
0.00054848784
0.00057655811
0.00060740563
0.00063196921
0.00065696391
0.0006709024
0.00068985749
0.00069639295
0.00073146739
0.00019376177
0.00019370172
0.00019396956
0.0001962819
0.00019728403
0.00020600711
0.0002148311
0.0002310682
0.00024999598
0.0002666127
0.00028168222
0.00030267916
0.00031967986
0.00033981299
0.00036029066
0.00037641535
0.00039040468
0.00040233608
0.00041192276
0.00042262716
0.000432709
0.00044433867
0.00045877224
0.00047238154
0.00049012136
0.00050547573
0.0005232277
0.00054267195
0.0005619775
0.00058100914
0.00059341301
0.00060192412
0.00060702294
0.0006111186
0.00061651051
0.00062010939
0.00063047705
0.00063290173
0.00065522298
0.0001945085
0.0001936698
0.00019352025
0.00019293272
0.0001924282
0.00019226295
0.00019420757
0.00019766735
0.00020877971
0.00022172782
0.00023071875
0.0002481669
0.00025663231
0.00026648478
0.00028052739
0.00029558964
0.00031251966
0.0003283302
0.00034697348
0.00035942625
0.00037242735
0.0003829582
0.00039510106
0.00040561017
0.00041847415
0.00042867206
0.00044103691
0.00045327086
0.00046895737
0.00048712806
0.00051127708
0.00053545057
0.00056657262
0.00059238376
0.00061912224
0.00063455826
0.00065446514
0.00066100773
0.00069338843
0.00019376281
0.00019351515
0.00019311644
0.00019348945
0.00019338937
0.00019702258
0.00019799257
0.00021251865
0.00022522042
0.00023935916
0.00025852605
0.00027859994
0.00029279711
0.00031518888
0.00033334034
0.00035182552
0.00036519442
0.00038033448
0.00039008756
0.00040269632
0.00041197886
0.00042359023
0.00043379429
0.00044695236
0.00045740481
0.00047195854
0.00048787886
0.00050433386
0.00052522761
0.00054281425
0.00056152203
0.00057595635
0.00058475245
0.00059001505
0.00059449133
0.0005941278
0.00060088072
0.0006027135
0.00062367395
0.00019444912
0.00019345316
0.00019345594
0.00019265965
0.00019211331
0.00019187557
0.00019391318
0.00019708111
0.00020367256
0.00020347512
0.00021505923
0.00022286497
0.00022814165
0.00024386746
0.0002592602
0.00027688656
0.00029149556
0.00030774061
0.00032094966
0.00033330493
0.00034602277
0.000358021
0.00037116685
0.00038352404
0.00039787282
0.00041141651
0.00042738851
0.00044339367
0.00046037787
0.00047889006
0.00050032643
0.00052035132
0.00054499329
0.00056825723
0.00059613287
0.00061349135
0.00063212146
0.00063765146
0.00066438781
0.00019348907
0.0001934762
0.00019306422
0.00019309736
0.00019290789
0.00019444983
0.00019543974
0.00020617405
0.00021582051
0.0002238115
0.00023548522
0.00025157304
0.00026475649
0.0002848309
0.00030068371
0.00031932665
0.00033799274
0.0003560164
0.00037206503
0.00038725413
0.00039987052
0.00041237802
0.00042259231
0.00043353158
0.00044383041
0.00045377269
0.00046613203
0.00047740229
0.00049338342
0.00050935685
0.00052648754
0.00054293741
0.00056045047
0.00057016401
0.00057667572
0.00057781304
0.00057888111
0.00057978531
0.00059523769
0.00019464699
0.00019405451
0.00019357822
0.00019291056
0.00019215761
0.00019179302
0.00019245433
0.00019156012
0.00019277526
0.00019403988
0.00020075742
0.00020205123
0.00020581517
0.00021743187
0.00023146665
0.00024380599
0.00025607999
0.00026978626
0.00028325807
0.00029873845
0.00031263358
0.00032794924
0.00034287049
0.00035749915
0.00037201884
0.00038619377
0.00040084601
0.00041938933
0.00043876623
0.00046009344
0.00048077713
0.00050117747
0.00052137076
0.00053884371
0.00056182425
0.00057970637
0.00060116338
0.00060800708
0.00063300793
0.0001939624
0.00019360936
0.0001931224
0.00019290809
0.00019190021
0.00019165402
0.00019174294
0.00019910784
0.00020156742
0.00020539906
0.00021799688
0.00023691631
0.00025198194
0.00027072088
0.00028576082
0.00030192549
0.00032091932
0.00033612406
0.00035514971
0.00036984368
0.00038576624
0.00039949362
0.00041163481
0.00042479502
0.0004352905
0.00044776017
0.00045840005
0.00047106195
0.00048459362
0.00049669587
0.00050969563
0.00051962657
0.00053045775
0.00054308237
0.00055059602
0.00055821473
0.00056004192
0.00056121136
0.00057337937
0.00019554067
0.00019510716
0.00019492148
0.00019354833
0.00019253822
0.00019207074
0.0001916617
0.00019120896
0.00019073053
0.0001899009
0.00018934156
0.00018935658
0.00019134365
0.00019802034
0.00020819602
0.00021846776
0.00022762795
0.00023942135
0.00025279526
0.00026576524
0.00027809917
0.00029195771
0.00030684557
0.00032445277
0.00034254506
0.00036163349
0.00038036522
0.00040123287
0.00042233907
0.00044425669
0.00046530014
0.00048540025
0.00050410279
0.00052099122
0.00053857764
0.00055470708
0.00057789928
0.00058606119
0.00060931327
0.00019504284
0.0001946276
0.00019390531
0.00019334004
0.00019201106
0.00019155781
0.0001916836
0.00019260045
0.00019274523
0.00019547117
0.00020579295
0.00021752084
0.00023072326
0.00024624678
0.00026069296
0.00027887838
0.00029476947
0.00031179218
0.0003273288
0.00034314176
0.00035905097
0.00037459649
0.00039058922
0.00040604957
0.00042001185
0.00043440154