/*--------------------------------*- C++ -*----------------------------------*\
| =========                 |                                                 |
| \\      /  F ield         | OpenFOAM: The Open Source CFD Toolbox           |
|  \\    /   O peration     | Version:  2406                                  |
|   \\  /    A nd           | Website:  www.openfoam.com                      |
|    \\/     M anipulation  |                                                 |
\*---------------------------------------------------------------------------*/
FoamFile
{
    version     2.0;
    format      ascii;
    arch        "LSB;label=32;scalar=64";
    class       volScalarField;
    location    "100";
    object      nut;
}
// * * * * * * * * * * * * * * * * * * * * * * * * * * * * * * * * * * * * * //

dimensions      [0 2 -1 0 0 0 0];

internalField   nonuniform List<scalar> 
16045
(
0.00014912334
0.00014718036
0.00014671677
0.00014534093
0.00014584016
0.00014525986
0.00014667507
0.00014711971
0.00015029722
0.00015146593
0.00015574582
0.00015844336
0.00016343405
0.0001639639
0.00016557851
0.00016326807
0.00016086354
0.00015811399
0.00015398164
0.00014878379
0.00014573709
0.00014265191
0.00014606633
0.00014926082
0.00015370791
0.00016433241
0.00020903646
0.0003211435
0.00095457873
0.0078917154
0.018115911
0.026151994
0.018316969
0.0059102946
0.0041176793
0.0042495278
0.0031250195
0.0014481826
0.0010391836
0.00090157277
0.00079901769
0.00077595376
0.0007449403
0.00071487477
0.00069040295
0.00064807054
0.00062503915
0.00060173168
0.00060017373
0.0005911243
0.00056644049
0.00054528641
0.00053045756
0.00051124672
0.00048642735
0.00047593134
0.00045311313
0.00043883851
0.00040702368
0.00040207437
0.00036964686
0.00035978733
0.0003442776
0.00032707651
0.00031796975
0.00030273484
0.00028923556
0.00027712847
0.0002589187
0.00024593544
0.0002423827
0.0002269309
0.00021579159
0.00020610539
0.00019708519
0.00019250657
0.00018783884
0.00018590891
0.000184196
0.00018319575
0.00018552733
0.00018875636
0.00019580932
0.00020703754
0.00022007412
0.00023501759
0.00024427378
0.0002658926
0.00028085018
0.00029701436
0.00030924572
0.00032312292
0.00034184865
0.0003800076
0.00043986288
0.00051737268
0.00058300586
0.00059397813
0.00052882614
0.00047486251
0.00014914616
0.00014715616
0.0001469229
0.0001456601
0.00014652164
0.00014650115
0.0001483368
0.00014996342
0.0001530161
0.00015592942
0.00016084063
0.00016551869
0.0001703395
0.00017051871
0.00017142415
0.00016785336
0.00016623497
0.00016357717
0.00015928901
0.00015354862
0.00015190948
0.0001606213
0.00016744448
0.00016768636
0.00017057207
0.00018633716
0.00030754405
0.00047365168
0.0011128772
0.0089567442
0.019740221
0.022404639
0.031170666
0.056695274
0.030407785
0.0098092105
0.012591178
0.0045340103
0.0022932583
0.002039092
0.0012737497
0.0011524642
0.0011442276
0.0010583152
0.001023845
0.00094306359
0.00085850091
0.0007671726
0.00071085721
0.00068736606
0.00063764714
0.00060229628
0.00058577801
0.00057401321
0.00054819687
0.00051450869
0.00049264756
0.00047447535
0.00044178169
0.00043257738
0.0003965249
0.00038112194
0.00036515996
0.00035054097
0.00033913852
0.0003165007
0.0003047173
0.00029341486
0.00027192939
0.00025487015
0.00025275974
0.00023924089
0.00022413575
0.00021344495
0.00020484393
0.00019442671
0.00018836036
0.00018387969
0.00018003946
0.0001767556
0.00017548884
0.00017319837
0.00017078789
0.0001694955
0.00017698735
0.00018525406
0.00018791659
0.00019885692
0.00022040114
0.00024664797
0.00027244843
0.000300027
0.00032158605
0.00035294406
0.00042349203
0.00053149029
0.00058795316
0.00065120033
0.00066325635
0.0006488654
0.00014926367
0.00014711296
0.00014706329
0.00014556042
0.00014656918
0.00014650821
0.00014808041
0.0001506495
0.00015146526
0.00015622908
0.00016220357
0.00016580571
0.00017003804
0.0001720386
0.00017316752
0.00017083235
0.00017026296
0.00016780975
0.00016250263
0.00016653752
0.0001702328
0.00017483006
0.0001712484
0.0001795969
0.00018060527
0.0001934866
0.0003147862
0.00042603502
0.0011018853
0.0062315643
0.012047959
0.016320888
0.023607178
0.049122351
0.042956362
0.03489529
0.036435241
0.022693613
0.0067459949
0.010126537
0.0068071504
0.00098152832
0.0014218755
0.0012312492
0.0012068122
0.0011274643
0.0010114454
0.00089538839
0.00076826256
0.00071710094
0.0006501088
0.00059920488
0.00058847616
0.0005820446
0.0005605919
0.00051416271
0.00049009207
0.00047166321
0.00044258471
0.00043479252
0.00039753605
0.00037437317
0.00035684723
0.00035246691
0.00034016145
0.00031196298
0.00030333688
0.00029400347
0.00027112803
0.00025385
0.00025019782
0.00023908059
0.00022346239
0.00021274585
0.00020754981
0.00019465082
0.00018882514
0.00018366927
0.00017994856
0.00017593814
0.00017511488
0.00017326014
0.00016989822
0.00016874502
0.00016681161
0.00016895989
0.00017118946
0.00017489509
0.00017725868
0.00018554961
0.00019465355
0.00021781476
0.00025303735
0.00028347329
0.00031888696
0.0003810232
0.00048298806
0.0005538041
0.00056540932
0.00056952387
0.00014898124
0.00014750194
0.00014688639
0.00014587554
0.00014699441
0.00014659145
0.00014932523
0.00015169214
0.00015572962
0.00016101376
0.00016525729
0.0001805792
0.00018741814
0.00019491083
0.00019112328
0.00019367065
0.00019854843
0.00019569553
0.00021268283
0.00022308996
0.00022563242
0.00023201496
0.00023593971
0.0002301658
0.00022439693
0.00023958283
0.00029680336
0.000444464
0.00086752503
0.0026419481
0.0067765955
0.0087516529
0.010830125
0.01792012
0.031402595
0.028047536
0.028920164
0.020077642
0.015151391
0.021136821
0.018274082
0.0034881792
0.0017907471
0.00143596
0.0013704348
0.001255492
0.0011732124
0.001086295
0.00095719314
0.00084271435
0.00072024848
0.0006338814
0.00062166036
0.00061666132
0.00060286755
0.00053272816
0.00049099866
0.00047384985
0.00044984122
0.00043668332
0.00040236346
0.00036998221
0.00035285731
0.00035493351
0.00035063895
0.00031145098
0.00029690874
0.00029704542
0.00027933737
0.00025376536
0.000246232
0.00024414376
0.00022943649
0.00022019073
0.00021486017
0.00020407273
0.00019854586
0.00019035832
0.00018463
0.00017973873
0.0001755403
0.00017270098
0.00016653943
0.0001655776
0.00016207487
0.00016430733
0.00016583537
0.00016574506
0.00016525055
0.00017172658
0.0001719245
0.00017869699
0.00018629381
0.00020518256
0.00024229944
0.00031703409
0.00039575348
0.00045362318
0.00046579354
0.00046899387
0.0001483397
0.00014862687
0.00014585827
0.00014738949
0.00014671666
0.00014793403
0.00015123511
0.0001535597
0.00015985058
0.00016712787
0.00017648716
0.00019105972
0.00022356341
0.00023224819
0.00024642388
0.00026825843
0.00031599741
0.0002941511
0.00026738837
0.0002807187
0.00028050708
0.00027912822
0.00025905738
0.00027047086
0.00027449881
0.00030438895
0.00034646342
0.00047340527
0.00077976013
0.0017515237
0.0044719215
0.0058793217
0.0068097774
0.00857769
0.015853956
0.016427689
0.016549787
0.012953163
0.01172271
0.012370663
0.010356521
0.01110613
0.0045568038
0.0015433241
0.0014021594
0.0012967894
0.0012030292
0.0010957489
0.00099833785
0.00088837105
0.00075170019
0.00064912516
0.0006193238
0.00060793883
0.00059707805
0.00052895126
0.00050397311
0.00046794494
0.00044908957
0.00042811654
0.00040633267
0.00037636748
0.00035440022
0.00035405193
0.00034385868
0.00033402078
0.00030300527
0.00030349422
0.0002832095
0.00027027464
0.00025410636
0.00024365442
0.00023536703
0.00022831778
0.00021617454
0.0002145281
0.00020719562
0.00020356408
0.00019211854
0.00019206863
0.00018634388
0.00017868194
0.00016678871
0.00016145807
0.00015508282
0.00015690039
0.00015514984
0.00015631501
0.00016326437
0.00016464878
0.00016606401
0.00016981288
0.00017009712
0.00017699024
0.00018564178
0.00020942675
0.00024147302
0.00027378604
0.00028330045
0.00028378606
0.00014817516
0.00014904959
0.00014572555
0.00014851508
0.0001466066
0.00014983923
0.00015221769
0.00015883184
0.00016681181
0.00017843024
0.00018974467
0.00021988081
0.00025252831
0.00026838679
0.00029067032
0.00035736638
0.00041357451
0.0003821452
0.00038975346
0.00038664193
0.00037609831
0.00037638782
0.00034095251
0.00032881453
0.00034157646
0.00037669668
0.00043496217
0.0004874105
0.00077577236
0.0015222132
0.0039561697
0.0053927085
0.0058627576
0.0066779764
0.0086477977
0.010765685
0.010956202
0.010420992
0.0084647238
0.0077092727
0.0083780015
0.0082297438
0.0045122346
0.0022327082
0.0014657328
0.0013218638
0.0012213305
0.0010654982
0.0009625682
0.00085223608
0.00075030193
0.00069615114
0.000665468
0.00061300311
0.00055880423
0.00053064068
0.00052165285
0.00044697408
0.00044568743
0.00042792006
0.00039215149
0.00035886921
0.00036550023
0.00035035999
0.00034381018
0.00033842854
0.00031599173
0.00030117401
0.00028028247
0.00027278199
0.00026139143
0.00024421788
0.00023711444
0.00023965215
0.00022271236
0.00022167656
0.00021634124
0.00021374588
0.00020420623
0.00020542852
0.00020588422
0.00019134274
0.00017337625
0.00016777805
0.00015443122
0.00015398206
0.00015222848
0.00015282444
0.00015362761
0.00015499236
0.00015940044
0.00016376512
0.00016500039
0.00016787007
0.00017153553
0.00018345939
0.00019590612
0.00021033978
0.00020984888
0.00021092179
0.00014890637
0.00014826008
0.00014702517
0.00014803697
0.0001485816
0.0001505477
0.00015797133
0.00016834567
0.00017814795
0.00020786969
0.00023446898
0.00028398922
0.00033137131
0.00035394788
0.00042138886
0.0005445603
0.00061703212
0.00069681927
0.00060261884
0.00053669194
0.0004784179
0.00049486994
0.00048692898
0.00047452172
0.00045920986
0.00049638035
0.0005552695
0.00057533095
0.00071337828
0.0012444436
0.003162951
0.0052903677
0.0064937357
0.0077696131
0.0082232658
0.0088751271
0.0091760185
0.0089923479
0.0080392212
0.007248826
0.0067308275
0.0072151426
0.0049775908
0.0025647415
0.0017900571
0.0013937089
0.0011824442
0.0010262641
0.00090770001
0.00081827426
0.00076163049
0.00072886811
0.00071854771
0.00068292042
0.00058132774
0.00056036043
0.00055108234
0.00048229344
0.00045742331
0.00043144667
0.00041530841
0.00036485253
0.00037621282
0.00035150492
0.00033750183
0.00032602789
0.00031642893
0.00031137569
0.0002847318
0.00027834247
0.00026259545
0.00025391058
0.0002474593
0.0002500384
0.00022700071
0.00022009835
0.00022765889
0.00022693415
0.00022116158
0.00022235935
0.00022820847
0.00020783587
0.00018655241
0.00016881689
0.00015974628
0.00015100821
0.00015170657
0.00015015574
0.00014790099
0.00014815635
0.00014963574
0.000154749
0.00015919829
0.00016203636
0.00016434091
0.00017046349
0.0001769806
0.00018184236
0.00018358565
0.00018219402
0.00014926304
0.00014786774
0.00014797724
0.00014833389
0.00014927341
0.00015747458
0.00016843576
0.00019100073
0.00022966256
0.00032554053
0.0003872884
0.00051711005
0.00061215978
0.00064018297
0.00078815035
0.0010285938
0.0010103316
0.0012594998
0.0011380999
0.0010420398
0.0010449718
0.00084906234
0.00074460342
0.00066137752
0.00064047102
0.00063271085
0.0006634359
0.0006558957
0.00081227512
0.0010116784
0.0024723341
0.0040017225
0.0062583208
0.0090904056
0.011264732
0.012259833
0.011194665
0.011383647
0.0090934491
0.0097067759
0.0066792488
0.0071758095
0.0039862606
0.0026307723
0.0023079989
0.0015834682
0.0012333617
0.0010569242
0.00092609188
0.00085752986
0.00080509524
0.00067855383
0.00077080842
0.00069270049
0.00059214531
0.00059253221
0.00050748281
0.00051121722
0.00049526853
0.00045287612
0.00043969132
0.00036982833
0.00039716715
0.00037006731
0.00033946035
0.00034643269
0.00029757997
0.00031534057
0.00028960423
0.00029210864
0.00025875072
0.00026043264
0.00025019988
0.00024937336
0.00024356067
0.00022561249
0.00022875492
0.00024116347
0.00023324831
0.00023659581
0.0002590657
0.00021950628
0.00021592723
0.00016842985
0.00016354922
0.00015275424
0.00014942176
0.00014963506
0.00014873096
0.00014799045
0.00015097097
0.0001521025
0.00015526329
0.00015782464
0.00015813424
0.00016229727
0.00016883317
0.0001722379
0.00017007546
0.00016820756
0.00014941873
0.00014789778
0.00014882892
0.00014829551
0.00015306446
0.00017148252
0.00021813888
0.00032852483
0.0004756376
0.00074957048
0.0008813004
0.0012097284
0.0012820727
0.0015047226
0.0017767991
0.0027551584
0.0024208145
0.0020177271
0.0025223235
0.0027084422
0.00230885
0.0017595692
0.0014912466
0.0013082543
0.0011980962
0.0010104235
0.0010465879
0.00096882269
0.0012334932
0.0013055087
0.0022984985
0.0034297951
0.0059528541
0.0080593494
0.012795943
0.013050733
0.013215447
0.0113411
0.011711485
0.0092143861
0.0087492551
0.0060731538
0.004362706
0.0038119885
0.0031460048
0.0025151432
0.0014326901
0.0011397393
0.0010396743
0.00096254498
0.000958425
0.00081057037
0.00073703643
0.00066378061
0.00053481886
0.00050665245
0.00047678337
0.00050982038
0.00042751483
0.00039556486
0.00036917647
0.00039554571
0.00033741693
0.00031271063
0.00031692372
0.0003111863
0.0003346606
0.00028622831
0.00030480328
0.00028913237
0.0002638654
0.00026443159
0.00026034494
0.00024911138
0.00024304814
0.00024286294
0.00024138624
0.00025053211
0.00025289281
0.00025630987
0.00028804263
0.00024926009
0.00027471694
0.00016839828
0.00016809581
0.0001567063
0.00015365894
0.00015461988
0.00015257724
0.0001488067
0.00014878151
0.00015172866
0.00015548202
0.00015513868
0.00015569627
0.0001582933
0.00016288351
0.00016764845
0.00016649659
0.00016367188
0.00014923931
0.00014838037
0.00014863974
0.0001466024
0.00016573708
0.00025704468
0.00059083187
0.0011002878
0.0015264778
0.0020721275
0.0022678475
0.0028659656
0.003178677
0.0036399948
0.0040543416
0.0050750893
0.0047730207
0.0042883173
0.0051942296
0.0044986707
0.0039553828
0.0033199178
0.0028649056
0.0024217313
0.0020960322
0.001936418
0.0015968037
0.0015833309
0.0015928656
0.0016439207
0.0019735437
0.0033996645
0.0059173685
0.008110213
0.012237838
0.012994944
0.012365802
0.013620422
0.010112175
0.0082081988
0.0068301448
0.0050507047
0.0051491605
0.0047483346
0.0053188854
0.0037327653
0.0015589288
0.0011477355
0.0010360123
0.00092268773
0.00095491418
0.00076821918
0.00068187278
0.00065178416
0.00059009754
0.00051894271
0.00046075595
0.0004461446
0.00044920876
0.00040358055
0.00038835336
0.0003553034
0.000369863
0.00031477951
0.00033432766
0.00032376202
0.0002947351
0.00028800099
0.00029808425
0.00026272503
0.00027006034
0.00026563657
0.0002501938
0.00022417829
0.00022372365
0.00024191947
0.00024552788
0.0002457616
0.00025246868
0.0002561763
0.00033687487
0.00029568944
0.00035172799
0.00017371076
0.00017723594
0.0001661528
0.00015721768
0.00015364862
0.00015490077
0.00015164477
0.00015150941
0.00015145241
0.00015363801
0.00015661258
0.00015732822
0.00015913251
0.00016193588
0.00016506807
0.00016437562
0.00016035934
0.00014814028
0.00015186253
0.00014269048
0.00015832452
0.00024827596
0.00096580634
0.002966096
0.0046421322
0.0050912502
0.0055165653
0.0054661091
0.0061965376
0.0061160642
0.0070884525
0.0072410618
0.0072679687
0.0084559544
0.0077483304
0.0077315493
0.0067180786
0.0066355608
0.0060654691
0.0052085105
0.0046089049
0.0038601745
0.0033214837
0.0026821836
0.0024094514
0.0022594772
0.0021928277
0.0021145708
0.0026987248
0.0049054655
0.0066874914
0.01062729
0.01290689
0.012636036
0.012916544
0.010443548
0.0077542945
0.0063726375
0.0052227781
0.0049583602
0.0045690429
0.0041497595
0.0023340099
0.0015772305
0.0011807818
0.0010992358
0.00099787791
0.00083346068
0.00077361172
0.00074574911
0.00061127149
0.00059152981
0.00053350319
0.00047688696
0.00046086518
0.00041036468
0.00037951418
0.00038093659
0.00036737646
0.00034226847
0.00032812528
0.00032664155
0.00030819204
0.00029583414
0.00029076334
0.00028762454
0.00026830072
0.00027285196
0.00026287277
0.00025418927
0.00023994018
0.00024379631
0.00023910321
0.0002334732
0.00023744658
0.00026900166
0.0003045648
0.00041623606
0.0005773306
0.0004517487
0.00018011561
0.00017704505
0.00016901081
0.0001652307
0.00016034076
0.00015937595
0.00015693578
0.00015542549
0.00015382342
0.00015365334
0.00015510623
0.00015806378
0.00015888724
0.00016219467
0.000164479
0.00016242349
0.00015808908
0.00014900303
0.00015010475
0.00014503288
0.00018966239
0.00089099165
0.0056254636
0.015441019
0.016066827
0.015417011
0.013371193
0.011109669
0.010439941
0.009899976
0.011378673
0.011880239
0.012435722
0.010931954
0.0097180674
0.0093062539
0.0086410432
0.0088596592
0.0098199309
0.0098854879
0.0093298727
0.0086378381
0.0079175117
0.0064853409
0.0048902505
0.0039640071
0.0032144714
0.0028010514
0.0028895378
0.0036748534
0.0054978286
0.0086375974
0.0097485008
0.010749206
0.011430567
0.0099288984
0.0072837646
0.0061300419
0.0052401252
0.0046139258
0.0043643815
0.0032988309
0.0019484953
0.0013378383
0.0010413758
0.00095885065
0.00085364797
0.00085144077
0.00078098961
0.00066830506
0.00062440737
0.0005917091
0.00051168017
0.00050053567
0.00041917383
0.00041157321
0.00037888767
0.00036745607
0.00036115238
0.00036322439
0.00034416425
0.00031070162
0.00030465607
0.00030349106
0.00029502456
0.00026861935
0.00026676724
0.00024701343
0.00025454843
0.00024869447
0.00024957439
0.00026258561
0.00025045496
0.00024923182
0.00026028839
0.00029578324
0.00035608819
0.00045500418
0.00080422928
0.0006941989
0.00028106881
0.00018586032
0.00017884513
0.0001653396
0.00016094528
0.00015859828
0.00015815094
0.00015618418
0.0001552944
0.00015596041
0.00015607344
0.00015691802
0.00015823144
0.0001607337
0.00016344756
0.00016334095
0.00015851877
0.00015495433
0.00014051585
0.00015461001
0.00039745303
0.0051642182
0.032651261
0.058393285
0.04254619
0.03879364
0.028552226
0.018978991
0.01775138
0.017939887
0.019165609
0.017104331
0.014196412
0.012135003
0.010478869
0.009001983
0.0074742425
0.0063265827
0.0068106369
0.0078014558
0.007414511
0.0078351832
0.0073004632
0.0070395234
0.0059848147
0.0049700571
0.0045904462
0.0039911324
0.0034512805
0.0036060651
0.0041961506
0.0051861021
0.0069466258
0.0068586078
0.008210998
0.0077892533
0.0059281347
0.0048073982
0.0039579878
0.0031138831
0.0027572168
0.0021494156
0.0015179636
0.0012757187
0.0010197666
0.0009058481
0.00084007879
0.00083578179
0.00078500945
0.00070143291
0.00063484771
0.00058494585
0.00054540384
0.00047694472
0.00042790373
0.00040842872
0.00038451661
0.00036244536
0.00034590605
0.00035857338
0.00031444098
0.00031797601
0.00029549928
0.00029313363
0.0002919483
0.00027662108
0.00026353994
0.00025345015
0.00025967255
0.00025900088
0.00025918783
0.00023763034
0.00024758344
0.00025408171
0.00024941745
0.00028015458
0.00031111711
0.00037715608
0.00066259805
0.0010983268
0.00056641933
0.00030514273
0.00020258718
0.00017776186
0.00016178588
0.00015867948
0.00015845251
0.00015716731
0.00015717781
0.00015775893
0.00015785261
0.00015918896
0.0001605942
0.00016174083
0.00016488195
0.00016678843
0.00016233136
0.00015539326
0.0001401122
0.00017883371
0.002229928
0.026377762
0.13283505
0.16369801
0.085145813
0.055292666
0.039145576
0.032073861
0.032843391
0.027447356
0.021579139
0.017970469
0.015423487
0.01404073
0.01335847
0.012122544
0.010461252
0.0084601974
0.0063729453
0.0054046241
0.0043364646
0.0051010543
0.0049562773
0.0051512432
0.0046394851
0.0040663628
0.0038834224
0.0034379901
0.0031605885
0.0031555426
0.0034130407
0.0042010839
0.0046009174
0.0049204699
0.0046711575
0.004412231
0.0041985637
0.0040763548
0.0034842105
0.0028228764
0.0023363581
0.0017659695
0.0013008145
0.0011083936
0.00092722617
0.00084569245
0.00081641959
0.00075972501
0.00074083477
0.0006906409
0.0006330643
0.00060051305
0.00053763166
0.00050757082
0.00043456295
0.00040164492
0.00038178096
0.0003634206
0.00037328293
0.00032192936
0.00030980474
0.00030098562
0.00029610032
0.00028627006
0.00027585248
0.00026292962
0.00026861603
0.00026311823
0.00025238339
0.00025038164
0.00025980249
0.00024860743
0.00025402198
0.00025278231
0.00026462526
0.00025315566
0.00026791177
0.00033607184
0.0003382255
0.00050892314
0.0010685422
0.00070364858
0.0003208715
0.00018853929
0.00017443536
0.00015944233
0.00016072598
0.00015842334
0.00015860695
0.00015886093
0.00015911395
0.00015956489
0.00016115923
0.00016416466
0.00016896847
0.00017163407
0.00016684738
0.00015426024
0.00014096534
0.00034504971
0.013832118
0.11609543
0.38863442
0.23550562
0.11463485
0.07111661
0.055986201
0.048117982
0.039532979
0.031458122
0.028248566
0.030647795
0.030508969
0.031726778
0.029691588
0.02535506
0.020934213
0.015624344
0.010020276
0.0066081107
0.0049887738
0.0038241911
0.0034362452
0.0029971604
0.0029572903
0.002733167
0.0025897266
0.0023492074
0.0021284727
0.0019876456
0.0022742559
0.0022452
0.0025112853
0.0032882587
0.0026129979
0.0022008765
0.0019257229
0.0016878333
0.0014889315
0.0013327598
0.0011315369
0.00097852172
0.00087087013
0.00083461813
0.00079364499
0.00079716202
0.00076834471
0.00074330796
0.00073752937
0.00070722438
0.00067051897
0.00056102766
0.00052164367
0.00046060952
0.00044124611
0.00039382197
0.00038012319
0.00036942325
0.00035145622
0.00032913812
0.00030915655
0.00029677476
0.0002956464
0.00028648169
0.00028482
0.00028194758
0.00027323839
0.00026635439
0.00024134467
0.00026080556
0.00025017227
0.00024468061
0.00024916765
0.0002375941
0.00025685917
0.00026563604
0.0002646775
0.0002922871
0.00028881279
0.00034848074
0.00052090567
0.00086230913
0.00081953075
0.00025946344
0.00019887069
0.00016180908
0.00016556358
0.00016152017
0.00016221042
0.00016223067
0.00016274018
0.00016307946
0.00016420671
0.00016563862
0.00017038019
0.00017467182
0.00017012934
0.00014906422
0.00014754857
0.0020349009
0.07110327
0.3594728
0.57777657
0.32095914
0.16753614
0.10676404
0.079980212
0.063138789
0.056640374
0.066489564
0.067311718
0.09256696
0.10183648
0.11354077
0.096584585
0.080689416
0.072427219
0.058959348
0.038565205
0.022006289
0.011559501
0.0065230648
0.0046660438
0.0034331932
0.0028214407
0.0026253649
0.0022994778
0.0022341971
0.001944349
0.0016950737
0.0015231066
0.0014347543
0.0013775901
0.0015197869
0.0014363077
0.0013337401
0.0012416255
0.0011293493
0.0010141847
0.00090571506
0.00082653775
0.00078252232
0.00077586075
0.00079389646
0.00079470969
0.00076456053
0.00074011671
0.00072941046
0.00069809289
0.00066156921
0.00062477001
0.0005621622
0.0005266325
0.00046990787
0.00045063996
0.00041752797
0.00038089275
0.00035647239
0.00035209025
0.0003299706
0.00031460551
0.00030122601
0.00029702625
0.00028560499
0.00028545161
0.00026297311
0.00026618498
0.00025134432
0.00024357468
0.0002514378
0.00023966567
0.00023971666
0.0002406521
0.00024612595
0.00025291791
0.00026395547
0.00027344941
0.00027535538
0.00030488249
0.00031598229
0.00049918538
0.00071274281
0.00062743379
0.00028896682
0.0002233002
0.00018208538
0.00017227053
0.00016730609
0.00016772058
0.0001680478
0.00016808838
0.00016901608
0.00017044293
0.0001740056
0.00017464188
0.00018077015
0.00017519867
0.00013763894
0.00017974509
0.015012122
0.25425624
0.78172288
0.73327572
0.45960161
0.24670805
0.14860454
0.11099146
0.11128554
0.1395235
0.15565787
0.15965006
0.17623681
0.20313476
0.22025635
0.21786124
0.21067173
0.24872653
0.20751945
0.15665968
0.096691661
0.050591542
0.024607319
0.011391443
0.0057777534
0.0037010799
0.0030011875
0.0025510956
0.0023872125
0.0020784017
0.0017955831
0.0015847636
0.0014560006
0.0012278309
0.0012076068
0.0011080609
0.0010087566
0.00093803817
0.00088149499
0.00091988236
0.00092170454
0.0008835172
0.00092887931
0.00095735425
0.0009399223
0.00089951581
0.00085069868
0.00081987821
0.00077287325
0.00073783259
0.00066903207
0.00061077497
0.00057361034
0.00053184806
0.0004803026
0.00042952344
0.00042107171
0.00038408988
0.00036162029
0.00032786618
0.0003273915
0.00031078281
0.00029154662
0.00028552475
0.00027517998
0.00026804295
0.00025821445
0.00025293377
0.00025221168
0.00024417845
0.00024097601
0.0002436817
0.00024578214
0.00024667273
0.00026302965
0.00025907955
0.00026837502
0.00027803916
0.00028892746
0.00029013158
0.00030710663
0.00047092806
0.00075044153
0.00063248772
0.0005293334
0.00023015448
0.00021225491
0.00017558593
0.00017659443
0.00017310358
0.00017410014
0.00017541704
0.00017581391
0.0001767133
0.00017987952
0.00018253253
0.0001902685
0.0001853478
0.00011813878
0.0006382184
0.087250763
0.60909838
1.2276688
0.99554099
0.58415069
0.30509269
0.20504492
0.18712884
0.22787072
0.27016137
0.27678714
0.30128919
0.32382039
0.37429909
0.35643103
0.38156593
0.42032658
0.38892655
0.34855145
0.2720809
0.19058911
0.11123639
0.056427499
0.027101222
0.01389352
0.0072738796
0.0043556717
0.0031661352
0.002672682
0.0023219479
0.0019222196
0.0016079849
0.0014349266
0.0012459863
0.0011304296
0.0010403566
0.00097165527
0.000922945
0.00088255896
0.00080771746
0.00082192197
0.00084484734
0.00085149485
0.00089464389
0.00094261983
0.00089877898
0.00088292808
0.00091354988
0.00088206811
0.00079714747
0.00074262935
0.00067448315
0.00061290875
0.00056783756
0.00051121471
0.00045100085
0.00040555034
0.00038684412
0.00035984213
0.00033881168
0.00031398063
0.00030786147
0.00029435668
0.00028085034
0.00027331443
0.00026485351
0.00025836438
0.00025488011
0.00024742378
0.00024689884
0.00024809931
0.00024931074
0.0002505097
0.00025138341
0.00026014735
0.00026301651
0.00026557098
0.00027068061
0.00028862457
0.00030019751
0.00031904853
0.00059620102
0.00066470054
0.00061634074
0.00039040315
0.0002520177
0.00021191481
0.00019424794
0.00018543282
0.00018325904
0.00018156382
0.00018340581
0.00018406538
0.00018467391
0.00018976932
0.00019262247
0.00019916242
0.00019611449
0.00078178484
0.0074879089
0.29365568
1.2273735
1.5662782
1.3289782
0.72485493
0.36691822
0.28532958
0.32108525
0.3609813
0.40503035
0.47022487
0.49888447
0.52801986
0.53414213
0.55468694
0.59761643
0.65894444
0.62171447
0.571187
0.50643657
0.4034863
0.24315812
0.12630097
0.062936795
0.032372573
0.016460357
0.0089266636
0.0054633408
0.0039140274
0.0032490848
0.0027160393
0.0021250124
0.0016527523
0.001317642
0.0011449037
0.0010432376
0.0009558007
0.00090147882
0.00085887841
0.00079028412
0.00080339501
0.00077551704
0.0008737439
0.00089814469
0.00095601175
0.00091306776
0.00085659894
0.00075571456
0.00069069095
0.00065043432
0.00061096501
0.00058151293
0.00053963283
0.0005071223
0.00048469462
0.00045867679
0.00042228146
0.00039509302
0.00037512513
0.00033296675
0.00032222389
0.00029591339
0.00028523971
0.00027587096
0.00026190727
0.00025562363
0.00024848063
0.00024735216
0.00024783088
0.0002485576
0.00024943344
0.00025079918
0.00025047778
0.00026303373
0.00025589303
0.00028813138
0.00028627182
0.00027801109
0.00030757898
0.00031605816
0.00031708683
0.00066084551
0.0008119338
0.00045165113
0.00039203142
0.00024167382
0.00022904764
0.00020285111
0.00019503217
0.00019130962
0.00018800694
0.00018979224
0.00019257078
0.00019249959
0.00019672371
0.00019972588
0.00020688125
0.00020471773
0.0049028136
0.042993233
0.61265141
1.8610651
1.9856485
1.5911324
0.72558927
0.45562069
0.43867928
0.4688305
0.54456669
0.59524065
0.59421062
0.57580424
0.58100051
0.60598958
0.65441797
0.71202791
0.80218772
0.84093966
0.88040818
0.87010326
0.76167778
0.53235088
0.2783936
0.12123538
0.055156592
0.030491029
0.017829886
0.011188558
0.0073221145
0.0051037888
0.0038505605
0.0028929539
0.002117507
0.0015578508
0.0012232555
0.001080266
0.00096566126
0.00090729687
0.00087051737
0.00081908573
0.00080970602
0.00077566188
0.00074946832
0.0007264402
0.00072209229
0.00069145715
0.00066486649
0.00065494915
0.00063491294
0.00061173614
0.00058205335
0.00055070777
0.00052867684
0.00049620539
0.00048110289
0.00046109607
0.0004324476
0.00039678386
0.00037499427
0.0003439359
0.00032009539
0.00030393597
0.00028621881
0.00027078988
0.00026392641
0.0002581693
0.00025367099
0.00025146161
0.00025080493
0.00025112009
0.00025184855
0.00025436976
0.00025402245
0.0002679322
0.00026338725
0.00027478346
0.00027301618
0.00029985238
0.00029391679
0.00031042993
0.00032827462
0.00069391508
0.00070390484
0.00059485096
0.00035797454
0.00026593325
0.00025469995
0.00021847106
0.00020573265
0.0002004841
0.00019380493
0.00019544045
0.0001980212
0.00019996063
0.00020188682
0.00020570225
0.00021322472
0.00021190512
0.021252711
0.17347673
1.1342399
2.2583422
2.1483481
1.5822345
0.81794699
0.61950593
0.57973086
0.61742165
0.64529065
0.63552155
0.5845813
0.54903419
0.57051053
0.62216032
0.65769287
0.73240379
0.81064777
0.89315067
0.98708913
1.1316337
1.1815148
1.033195
0.58875123
0.24347612
0.096870799
0.042686211
0.023736444
0.015753144
0.011533073
0.0080400416
0.0056921605
0.0042609805
0.003107869
0.0021723558
0.0015115878
0.0011716994
0.00098302419
0.0008961174
0.0009248523
0.00097918964
0.0009782653
0.00087775947
0.00078951041
0.000751945
0.00072196553
0.00069429126
0.00065457879
0.000651251
0.00062761782
0.0006027653
0.00057231307
0.00054738581
0.00052103893
0.0004942727
0.00046264235
0.0004350183
0.00041401147
0.00039853567
0.00037691404
0.0003530664
0.0003287295
0.00030516214
0.00028854522
0.00027551888
0.00026114269
0.00025365326
0.00025054369
0.00024940661
0.00025061543
0.00025216267
0.00025227594
0.00027014619
0.00027624476
0.00027747116
0.00027239357
0.00029172237
0.00030208065
0.0002991119
0.000310501
0.00033357053
0.00032977377
0.00046791988
0.0006667751
0.00049743884
0.00034049927
0.00032661566
0.00030016744
0.0002309926
0.00021564043
0.00021205868
0.00020077906
0.00020179284
0.00020434614
0.00020420097
0.00020880345
0.00021234603
0.00022066676
0.00021966662
0.046080409
0.34578087
1.6262393
2.3039517
2.1588264
1.4318142
0.89707748
0.71317314
0.63963748
0.64557253
0.64164183
0.5965036
0.49736179
0.46776092
0.51366583
0.57703892
0.63533991
0.7024035
0.76537878
0.8388195
0.94904388
1.1127506
1.3030023
1.3132981
1.0536041
0.48560659
0.18169433
0.073858247
0.033602888
0.020501912
0.015052553
0.011913976
0.0085147417
0.0056296886
0.0038366259
0.0025829029
0.0016960235
0.0012592673
0.0011110421
0.0011868174
0.0010958195
0.001020066
0.001014805
0.00095091867
0.00082830684
0.00076457169
0.00074525207
0.00069393812
0.00065616666
0.0006374679
0.00061811255
0.00060040282
0.00055823131
0.00053690706
0.00050737881
0.00048206388
0.00045347153
0.00042505263
0.00039980288
0.00037590851
0.00035106517
0.00032808841
0.00030884955
0.00029173365
0.00027870652
0.00027340864
0.00026328702
0.00026100172
0.00025853369
0.00025681348
0.00025824771
0.00025235148
0.00027004915
0.00027987212
0.00026479595
0.00027951279
0.00028915973
0.00029710367
0.0003048956
0.00031535778
0.00033531093