/*--------------------------------*- C++ -*----------------------------------*\
| =========                 |                                                 |
| \\      /  F ield         | OpenFOAM: The Open Source CFD Toolbox           |
|  \\    /   O peration     | Version:  2406                                  |
|   \\  /    A nd           | Website:  www.openfoam.com                      |
|    \\/     M anipulation  |                                                 |
\*---------------------------------------------------------------------------*/
FoamFile
{
    version     2.0;
    format      ascii;
    arch        "LSB;label=32;scalar=64";
    class       volScalarField;
    location    "100";
    object      nut;
}
// * * * * * * * * * * * * * * * * * * * * * * * * * * * * * * * * * * * * * //

dimensions      [0 2 -1 0 0 0 0];

internalField   nonuniform List<scalar> 
10720
(
6.7726978e-06
7.0924375e-06
7.5958801e-06
7.5447144e-06
7.1775575e-06
6.9287521e-06
6.1847907e-06
6.0754829e-06
5.6228102e-06
5.5549792e-06
5.4494352e-06
5.4896704e-06
5.7378822e-06
5.7572978e-06
6.3308194e-06
6.5410505e-06
7.2395308e-06
7.7623433e-06
8.9217447e-06
9.8907319e-06
1.155773e-05
1.3230688e-05
1.6301835e-05
1.9459974e-05
2.4377542e-05
3.2928577e-05
4.3573225e-05
9.2040452e-05
0.00016278491
0.0003815305
0.00071766749
0.0013855201
0.0019320946
0.0024586699
0.0036206306
0.0089356758
0.012050349
0.012830085
0.011354922
6.3693712e-06
5.9459573e-06
5.6493796e-06
5.362677e-06
4.8940087e-06
4.8290881e-06
4.4341412e-06
4.3975641e-06
4.2242615e-06
4.4111384e-06
4.3718831e-06
4.6817692e-06
4.8051243e-06
5.3143763e-06
5.5729334e-06
6.292672e-06
6.7184822e-06
7.7396369e-06
8.3536505e-06
9.8146996e-06
1.0733748e-05
1.3078451e-05
1.4667043e-05
1.9315152e-05
2.273643e-05
3.1236935e-05
3.9038438e-05
5.2559376e-05
8.9658888e-05
0.00017706567
0.00038738088
0.00085692205
0.0015630838
0.0021130501
0.0026769027
0.0045928647
0.0087562334
0.010742981
0.0096859005
3.6727497e-05
3.9357615e-05
4.0721924e-05
4.4339422e-05
5.038227e-05
5.7915918e-05
6.6313546e-05
7.9026243e-05
9.0439352e-05
0.00010704435
0.00012672316
0.00014800759
0.00018416677
0.00022058162
0.00027189383
0.00033762572
0.00041495395
0.00052028926
0.00065942091
0.00069737641
0.00082531764
0.00086282082
0.001017446
0.0010816906
0.0011994534
0.001182942
0.0011986045
0.0013019266
0.0015442198
0.0021865144
0.0034237073
0.0060601559
0.010996267
0.020126471
0.034934086
0.071829589
0.098307082
0.11597533
0.11878158
3.6939443e-05
3.7682742e-05
3.954212e-05
4.1954532e-05
4.6217343e-05
5.1691479e-05
5.8227002e-05
6.9534954e-05
8.3367208e-05
0.000105206
0.0001332643
0.00017401449
0.00023375672
0.00030130315
0.00034889122
0.00040586316
0.00041854086
0.00047689366
0.00049276997
0.00055818911
0.00057411942
0.00064974938
0.00066702055
0.0007590472
0.00078831802
0.00095802719
0.0010580295
0.0013361831
0.0014044555
0.0016733164
0.002311739
0.0037942042
0.0068867943
0.012801688
0.022092372
0.041223332
0.079805678
0.10050145
0.11073457
6.4975338e-05
6.9367887e-05
7.317286e-05
7.9939071e-05
9.1890019e-05
0.00010833029
0.00012676294
0.00015463085
0.00018305727
0.00022540552
0.0002832875
0.0003252213
0.00033285609
0.00036307678
0.00036209508
0.00041269064
0.00042861213
0.00045231504
0.00051394488
0.00049495727
0.00059509355
0.00057197784
0.00067058985
0.00071091482
0.00076466196
0.00096498459
0.00091803114
0.0012241387
0.0011364984
0.0017088399
0.0013911657
0.0029342833
0.0040604178
0.013256017
0.016768139
0.026410172
0.036771786
0.076889218
0.13697019
6.6152481e-05
7.1748518e-05
7.7683399e-05
8.8060123e-05
9.9579558e-05
0.00011573288
0.00013698325
0.00016806767
0.0002085039
0.00026141839
0.00031592559
0.00034356703
0.00034992372
0.00037977214
0.00038364571
0.00042795922
0.00043314916
0.00049391834
0.00050528178
0.00058183343
0.00058545152
0.0006515119
0.00064602774
0.00071684041
0.00070999867
0.00080734514
0.00079710319
0.00095957643
0.00094761526
0.0011813075
0.0013915578
0.00083546981
0.0028014104
0.0044367444
0.014531756
0.015203727
0.029900901
0.048707447
0.11383295
0.00014004801
0.00015076258
0.0001598047
0.00017473388
0.00020050234
0.00023386706
0.00026298669
0.00026777161
0.00028029959
0.00028473636
0.00029575215
0.00030500681
0.00031979615
0.00032516328
0.00035501279
0.00036527104
0.00038488601
0.00042299591
0.00045875758
0.00048644425
0.0005251842
0.00054273259
0.00055662613
0.00056849442
0.00058208393
0.00060629614
0.00059474995
0.00065441942
0.00062239809
0.00078782796
0.00077653962
0.0012012644
0.0014433194
0.002965508
0.0075683275
0.0068352234
0.012822589
0.015897969
0.090269023
0.00014350395
0.00015898445
0.00017170618
0.00019369047
0.00020995498
0.00023987775
0.00027018356
0.00028042816
0.0002891362
0.00029560327
0.00031252915
0.00031901241
0.0003367048
0.00035332461
0.00036509322
0.00039383695
0.0004179175
0.00042698141
0.00044582069
0.00045462675
0.00045313573
0.00045734729
0.00047415331
0.00047837867
0.00049875283
0.00050731727
0.00052696887
0.00054298967
0.00058267782
0.00054371224
0.00070806004
0.0006128683
0.0012261332
0.00099023032
0.0048462241
0.0034472895
0.011048213
0.0097737556
0.061365716
0.00024352431
0.00023384571
0.00023535832
0.00024290161
0.00024330516
0.00023994403
0.00024556163
0.00025400719
0.00025907374
0.00026536642
0.00027626614
0.00028747636
0.00029345954
0.00030965447
0.00032153022
0.00033432612
0.00036123416
0.00038519709
0.00040566304
0.0004205721
0.00043638464
0.00044474062
0.00045859877
0.0004672743
0.00046636521
0.00048656769
0.00048810295
0.0005104266
0.00050758103
0.00052529766
0.00057608498
0.00054568048
0.00078406914
0.00075874172
0.0021795081
0.001982146
0.0045106745
0.0055684528
0.049339483
0.00025199752
0.00026028813
0.00025613325
0.00025211684
0.00026294312
0.00025710134
0.00026623975
0.00026386676
0.00027464661
0.00028290631
0.00028680077
0.00030027288
0.00031067525
0.0003246154
0.00034386045
0.00035424106
0.00036748115
0.0003727229
0.00038221296
0.00038558854
0.00039288626
0.00038748107
0.00039547064
0.00039254028
0.00040381421
0.00040857928
0.00042688609
0.00043835202
0.00045925788
0.00045839941
0.00049246234
0.00048764287
0.00058547271
0.00059108946
0.0012927996
0.0012215205
0.0031377219
0.0035450096
0.031166393
0.00024232281
0.0002369282
0.00023863543
0.00024603422
0.00023952197
0.00024113938
0.00024586776
0.00025026622
0.00025254569
0.00026163271
0.00026767718
0.00027635138
0.00028365065
0.00029443797
0.00030688909
0.00031920111
0.00034218765
0.00036851558
0.00038500211
0.00040106537
0.00041178064
0.00041299981
0.00041741498
0.00042819314
0.00043662979
0.00044409159
0.00044917157
0.00045293255
0.00045550203
0.00045676866
0.00046875077
0.00046020489
0.00050669063
0.00049832975
0.00070867056
0.00066846182
0.0012348939
0.0016903393
0.029623604
0.00025139243
0.00024647231
0.00025365048
0.00025841802
0.00025440626
0.00026058938
0.00026332584
0.00026548122
0.00026963706
0.00027470532
0.00027941341
0.00028892693
0.00030100356
0.00030790285
0.00032290417
0.00033719703
0.0003485265
0.00035864776
0.00036736459
0.00036973376
0.00037147825
0.00037498467
0.00038285155
0.00038677918
0.0003890209
0.00038954218
0.00039069667
0.00039121201
0.00039291497
0.00039384028
0.00039990738
0.00039334423
0.00042012754
0.00041198505
0.00051911519
0.00050008188
0.00083924717
0.00096633917
0.018286658
0.00022693203
0.00022649633
0.00023163631
0.00023182686
0.00022649234
0.00023120937
0.00023192022
0.00023568313
0.00024095285
0.00024752222
0.00025409836
0.00026192563
0.0002669262
0.00027737746
0.00028743636
0.00029811061
0.00031829089
0.00033602572
0.00034498758
0.00035029965
0.00035605786
0.00035985989
0.00035838858
0.00035995543
0.00036651394
0.00037332823
0.00037970249
0.00038729238
0.00039575674
0.00040242749
0.0004136514
0.00041429193
0.0004325368
0.0004312433
0.00046806973
0.00046374255
0.00054608434
0.00063179182
0.0185206
0.0002332672
0.00023817149
0.00024651035
0.00024247437
0.00025314719
0.00025874424
0.00025818253
0.00026389091
0.00027127422
0.00027025254
0.00027906195
0.00028478095
0.00028957871
0.00030028855
0.00031226652
0.00032071559
0.00032696999
0.0003317897
0.00033275975
0.00033162371
0.00033449484
0.00033465183
0.00033422426
0.00033227945
0.00033478774
0.00033342255
0.00033528235
0.00033637577
0.00034340619
0.00034559695
0.00035262388
0.00035326142
0.00036365832
0.00036171706
0.0003840301
0.00038105189
0.00043380771
0.00045445792
0.010225187
0.00022257796
0.00023151536
0.00023737236
0.00023561312
0.00023192546
0.0002331613
0.00023446453
0.00023646637
0.00023885176
0.00024339786
0.00024899577
0.00025500458
0.00025954356
0.00026820924
0.0002758902
0.00028529883
0.0003001956
0.00031044833
0.00031522649
0.00031926175
0.00032119122
0.00032695885
0.00032549587
0.00032945954
0.00033073052
0.00033568499
0.00033826265
0.00034178206
0.00034644696
0.00035100544
0.00036013808
0.00036443027
0.00037576807
0.00038149516
0.00039123901
0.00039025493
0.00041294329
0.00042885752
0.01072372
0.00023067757
0.00023523437
0.00024508271
0.00025229424
0.00025318332
0.00025988956
0.00025942286
0.00026924054
0.00026397391
0.00027164472
0.00027616689
0.00027810552
0.00028556597
0.0002944216
0.00030207925
0.00031116094
0.00031326395
0.0003168759
0.00031762697
0.00031628763
0.00031853542
0.00031888307
0.00031798987
0.0003184739
0.00032081756
0.00032110702
0.00032122969
0.00032122835
0.00032131757
0.00032141262
0.00032187943
0.00032228654
0.00032431516
0.00032556666
0.00033278356
0.00033141562
0.00034391393
0.00034834058
0.0051338419
0.00020562469
0.00021978408
0.00022768816
0.000224641
0.00022093193
0.00022464937
0.00022545706
0.00022583809
0.00022965203
0.00023579273
0.00024388045
0.00024766406
0.00025255585
0.00025789309
0.00026132244
0.00026939231
0.00027797968
0.00028487614
0.00029026599
0.00029237362
0.00029665013
0.0002979743
0.00030278268
0.00029915312
0.00029831366
0.00030085729
0.00030454485
0.00031134458
0.00031737518
0.0003242548
0.000332747
0.00034030318
0.00034939198
0.00035731623
0.00036179859
0.00036570264
0.00037212594
0.00038040663
0.0059189008
0.00021089592
0.00022175024
0.00023678747
0.00023719064
0.00025036939
0.00025664041
0.00025756508
0.00026354738
0.00026675332
0.00027106412
0.00027436475
0.000276537
0.00028034078
0.00028879402
0.00028793555
0.00029195403
0.0002899717
0.00028830386
0.00028759768
0.00028601807
0.00028593107
0.00028392369
0.00028476222
0.00028773411
0.00028814385
0.00029171333
0.00029269365
0.00029678515
0.00030000976
0.0003034713
0.00030690143
0.00030957105
0.00031205362
0.00031441699
0.00031705714
0.00032175566
0.00032594608
0.00032690616
0.0025407956
0.0002029667
0.00022165974
0.00022841667
0.00022626992
0.00022510988
0.00022735628
0.00022629487
0.00022705552
0.00023033498
0.00023742038
0.00024328203
0.00024580801
0.00024846646
0.00025195847
0.00025763427
0.0002661542
0.00027349518
0.00027897034
0.00028145079
0.0002839475
0.000284783
0.00028916087
0.00029034181
0.00028950133
0.00028564334
0.0002877952
0.0002885245
0.00029252981
0.00029601346
0.00030028693
0.00030615935
0.00031223078
0.00031959895
0.00032808902
0.00033260507
0.00033575171
0.00034359914
0.00034714724
0.0032191991
0.00020888447
0.00022414023
0.00023426741
0.00024341871
0.00025281632
0.00025413711
0.00025848068
0.00026563339
0.00026551327
0.00027057809
0.00026917562
0.00027464125
0.00027754716
0.00028165905
0.00028285455
0.00028284332
0.00027917265
0.00027959912
0.0002737942
0.00027240198
0.00027223896
0.00026490588
0.00026299149
0.00026219906
0.00026630381
0.00026784521
0.00027176075
0.00027265489
0.00027306308
0.00027403813
0.0002754223
0.00027635033
0.00028062302
0.00028257245
0.00028467246
0.00028932945
0.00029439104
0.00029808506
0.0012963249
0.00018495637
0.00020540317
0.00021306192
0.00021546999
0.00021835963
0.0002217376
0.00022324139
0.0002230959
0.00022813617
0.00023503215
0.00023618351
0.00023751187
0.00024082471
0.00024440339
0.00025088285
0.00025665622
0.00026233614
0.00026729788
0.00026938653
0.00027463706
0.00027739275
0.0002791539
0.00028293801
0.00028449919
0.00028222311
0.00027999061
0.00028141684
0.00028471524
0.00028912088
0.00029608971
0.00030212706
0.00030733109
0.00031287575
0.00031822495
0.00032132913
0.00032391628
0.00032934544
0.00033190376
0.0017700327
0.00019442575
0.00020708455
0.00021989948
0.00023040791
0.00023867732
0.00024698019
0.00025001117
0.0002558802
0.00025709358
0.00026166629
0.00026534637
0.00026942862
0.00027274355
0.00027425835
0.00027441707
0.00027176938
0.00027005543
0.00026761966
0.00026395198
0.00026230221
0.00025998297
0.00025739886
0.00025169394
0.00025168334
0.00025290365
0.00025532249
0.00025894995
0.0002626449
0.00026603483
0.00026843341
0.00026779387
0.00026948303
0.00026906282
0.00027209619
0.00027311938
0.00027433408
0.00027668141
0.00027988213
0.00072665115
0.00018557904
0.00020021669
0.00020472361
0.00021058919
0.00021639216
0.00021986397
0.00022013769
0.00021978513
0.00022627109
0.0002309901
0.00023017461
0.00023261802
0.0002360244
0.00024081227
0.00024674031
0.00025210128
0.0002560457
0.00025948605
0.00026417604
0.00026821607
0.00027121755
0.00027498181
0.00027562345
0.00027787873
0.00027746959
0.00027248977
0.00026894336
0.00026943799
0.00027225775
0.00027792169
0.00028340938
0.00028874395
0.00029418895
0.00029960118
0.00030266183
0.00030501283
0.00031013197
0.00031230861
0.001003061
0.00019132288
0.00020509515
0.00021779722
0.00022886037
0.00023682725
0.00024152191
0.00024686955
0.00025106217
0.00025893395
0.00026434729
0.00026780856
0.00027005502
0.00027206229
0.00027207388
0.00026902869
0.00026557302
0.00025845044
0.00025608836
0.00024856596
0.00024511596
0.00024160675
0.00023800263
0.00023327161
0.00023145234
0.00022970454
0.00023304141
0.00023642003
0.00024075991
0.0002472761
0.00025031095
0.00025463463
0.00025636671
0.00025719502
0.00025839336
0.00025991547
0.00026137852
0.00026566782
0.00026614468
0.00046601327
0.00016778253
0.00018161679
0.00018571067
0.00019419591
0.00020141089
0.00020594968
0.00020869738
0.00021229701
0.00022002587
0.00022131398
0.00022142397
0.00022581277
0.00022855905
0.0002337522
0.00023672633
0.0002416434
0.00024593785
0.00025008515
0.00025561008
0.00025915918
0.00026444174
0.00026722819
0.00027011095
0.00027401162
0.00027683786
0.00027530594
0.00027263365
0.00027116758
0.00027311579
0.00027729328
0.00028227862
0.00028833745
0.00029221285
0.00029504807
0.00029618589
0.00029745673
0.00030110734
0.00030248091
0.00061676767
0.00017687367
0.00018818364
0.00020358289
0.00021457781
0.00022511408
0.00023440324
0.00023836476
0.00024577079
0.00025246592
0.00025350632
0.00025694029
0.00025811111
0.0002621767
0.00026069233
0.00026011352
0.00025884425
0.00025523852
0.00025373934
0.00025016957
0.00024589844
0.00024086715
0.00023847367
0.00023569222
0.00023139813
0.00022656073
0.00022826545
0.00022979802
0.00023346817
0.00023979705
0.00024549482
0.0002456404
0.00024668004
0.00024803462
0.0002481021
0.00025107802
0.00025194431
0.00025416197
0.00025657017
0.00034983074
0.00016045522
0.00017092501
0.00017359668
0.00018407918
0.00019212
0.00019784743
0.00020257066
0.00020886572
0.00021647355
0.00021594889
0.00021765281
0.00022208618
0.00022405651
0.00022764114
0.00022964358
0.00023380222
0.00023874245
0.00024346521
0.00025016389
0.00025393794
0.00025627833
0.00025941815
0.00026033723
0.00026290546
0.00026398712
0.00026395464
0.00026125332
0.00025819694
0.00025984486
0.00026462622
0.00026869596
0.00027446539
0.00028132611
0.00028566069
0.00028876391
0.00029178065
0.00029493179
0.00029578914
0.00043631838
0.0001695386
0.00017988894
0.00019595981
0.00020778439
0.00022121795
0.00023025277
0.0002335247
0.0002419822
0.00024370015
0.00024368037
0.00024657356
0.00025235424
0.00025188796
0.0002520173
0.00025176111
0.00025079155
0.00024859711
0.00024689011
0.00024287126
0.00023830207
0.00023498436
0.00023076673
0.00022683388
0.00022359666
0.00021907325
0.00021729219
0.00021708912
0.000218624
0.00022373397
0.00022940945
0.0002350593
0.00023948909
0.00023986421
0.00024251203
0.00024371055
0.00024466136
0.00024601123
0.00024584449
0.00028965077
0.00014111672
0.00015025077
0.00015369654
0.00016598413
0.00017607039
0.00018431348
0.00019367439
0.00020272078
0.00020912102
0.0002073042
0.00021119493
0.00021171715
0.00021216682
0.000213038
0.00021682488
0.00022105157
0.00022795086
0.00023514801
0.00024180103
0.00024722314
0.0002515473
0.00025506338
0.0002575866
0.00026118753
0.00026236965
0.00026358453
0.000264689
0.00026132724
0.00025947083
0.00025861257
0.00026102811
0.0002662033
0.00027069817
0.00027482158
0.00027846361
0.00028018356
0.00028387998
0.00028538835
0.00035440206
0.00015065817
0.00016209056
0.00018015058
0.0001915969
0.00020819437
0.00021785287
0.00022098314
0.00023026571
0.00023175885
0.00023699553
0.00024410161
0.00024420804
0.0002466123
0.00024727602
0.00024700033
0.00024950488
0.00024615429
0.00024780719
0.00024497082
0.00024469105
0.00024026695
0.00023829882
0.00023490835
0.00023112482
0.00023003344
0.00022695579
0.00022652815
0.00022593876
0.00022991275
0.00023278162
0.00023656385
0.00023862474
0.00023955975
0.00024099486
0.00024209176
0.00024428065
0.00024504071
0.00024529362
0.0002668006
0.00013150861
0.00013975486
0.00014374585
0.00015652764
0.00016795797
0.00017803655
0.00018960977
0.00019834904
0.00020290305
0.00020281829
0.00020479999
0.00020382765
0.00020511655
0.00020665229
0.00021118946
0.00021678078
0.00022512464
0.00023134658
0.00023600057
0.00023956054
0.00024226328
0.00024269511
0.00024475781
0.00024654735
0.00024914472
0.00024932156
0.00025217663
0.00025172937
0.00025124844
0.00025312997
0.00025441051
0.00025830842
0.00026271802
0.0002676824
0.00027157837
0.00027312458
0.00027664367
0.00027776137
0.00031098273
0.00014056219
0.00015267007
0.00017007867
0.00018164553
0.00020025368
0.00020950045
0.00021523808
0.0002209018
0.00022585742
0.00022990841
0.00023267506
0.00023348446
0.00023642602
0.00023595659
0.00023574466
0.00023539532
0.00023449879
0.00023450085
0.00023460704
0.00023397354
0.0002344006
0.00023340829
0.00023372099
0.00023105261
0.00022988161
0.00022762573
0.00022586744
0.0002256902
0.00022815542
0.0002305472
0.00023125282
0.00023353689
0.00023330498
0.00023439406
0.00023543031
0.0002365479
0.00023751241
0.00023790412
0.00025067363
0.00012056364
0.0001250368
0.00012873058
0.00013922148
0.00015120389
0.00016293441
0.00017550712
0.0001838107
0.00019046316
0.00019180207
0.00019605387
0.00019838219
0.00019945847
0.00020064338
0.0002035844
0.00020804796
0.00021391965
0.00022014827
0.00022550697
0.00023008959
0.00023328648
0.00023605863
0.00023775485
0.00023948847
0.00024216747
0.00024389816
0.00024649165
0.00024674355
0.00024930995
0.00024974748
0.00024932243
0.00025161979
0.00025564541
0.00025960047
0.00026254499
0.00026511609
0.00026900737
0.00027025459
0.0002894983
0.00012615778
0.00013651661
0.00015061984
0.00016136245
0.00018215413
0.00019213472
0.00019998899
0.00020897178
0.00021418889
0.00021940332
0.00022392314
0.00023079894
0.0002326743
0.0002340994
0.00023361891
0.00023566719
0.00023570732
0.00023577761
0.00023607044
0.00023895243
0.00023650747
0.00023748798
0.00023805638
0.00023765185
0.0002369082
0.00023529011
0.00023382179
0.00023282592
0.00023235035
0.00023410867
0.00023485649
0.0002348922
0.00023458134
0.00023462759
0.00023390032
0.00023560012
0.00023554354
0.00023586255
0.00024259142
0.00011569211
0.00011887054
0.00012199888
0.00013046218
0.00014162013
0.0001548087
0.00016703062
0.00017654339
0.00018311348
0.00018597094
0.00019244027
0.00019552799
0.00019665775
0.00019790494
0.00020058234
0.00020342115
0.00020624578
0.00021015245
0.0002146804
0.0002193255
0.0002232127
0.00022695146
0.00022816556
0.00022984186
0.00022959993
0.00023072303
0.00023171001
0.00023309493
0.00023700079
0.00023919674
0.00024070018
0.00024540385
0.00024876959
0.00025316239
0.0002557868
0.00025801416
0.00026049097
0.00026191429
0.00027202061
0.00011969691
0.00012801472
0.00013972631
0.00015102973
0.00017101412
0.0001802585
0.00019084907
0.00019863058
0.00020211337
0.0002100259
0.00021901805
0.00022284087
0.00022586671
0.00022704781
0.00022941245
0.00023008828
0.00022886239
0.00022879553
0.00022757153
0.00022729856
0.00022671711
0.00022690518
0.00022647785
0.00022747893
0.00022598876
0.00022667011
0.00022650261
0.00022738683
0.00022710766
0.00023013229
0.000232642
0.00023375753
0.00023372703
0.00023487632
0.0002353733
0.00023571464
0.0002345815
0.0002350613
0.00023771019
0.00011139096
0.00011239166
0.00011398678
0.00011888476
0.00012794147
0.0001407937
0.00015138485
0.00016210186
0.00016901941
0.00017725242
0.00018711965
0.00019321908
0.00019524046
0.00019527326
0.00019565155
0.00019691453
0.00020217657
0.00020837912
0.00021447902
0.00022123169
0.00022596429
0.0002300825
0.0002323359
0.00023403277
0.00023436691
0.00023422685
0.00023400769
0.00023423148
0.00023547538
0.00023910818
0.00023954131
0.00023999702
0.0002436102
0.000246011
0.00024977874
0.00025102621
0.00025440121
0.00025511661
0.00026217172
0.0001127948
0.00011711632
0.00012508482
0.00013502261
0.0001512738
0.00016063534
0.00017339394
0.00018299253
0.00019183803
0.00020398534
0.00021024179
0.00021581462
0.00021819913
0.00022363699
0.00022707791
0.00022857125
0.00023109176
0.00023089243
0.00023071296
0.000229107
0.00022862952
0.00022728963
0.00022565161
0.00022545014
0.00022579239
0.00022526178
0.0002261296
0.00022409538
0.00022367779
0.0002244694
0.00022476863
0.00022639404
0.00022956241
0.00023232425
0.00023383182
0.00023487575
0.00023470711
0.0002347635
0.00023655024
0.00010936864
0.00010976628
0.00011109868
0.00011513364
0.00012223033
0.00013399151
0.00014258291
0.00015269132
0.00016026096
0.00017157805
0.00018249213
0.00019023617
0.00019210416
0.00019223235
0.00019026565
0.0001939602
0.00020130876
0.00020499185
0.00021008405
0.00021276109
0.00021486126
0.00021770567
0.00022061926
0.00022305501
0.00022546809
0.00022776021
0.00022954146
0.00023185289
0.00023455556
0.00023801079
0.0002410891
0.00024242441
0.00024328264
0.00024374964
0.00024567465
0.00024685801
0.0002498616
0.00025068148
0.00025586176
0.0001104726
0.00011350662
0.00011919488
0.00012783034
0.00014114231
0.00015138142
0.00016546966
0.00017483041
0.00018829898
0.00019535468
0.00020347223
0.00020453333
0.00021016894
0.00021417002
0.00021631266
0.00022022038
0.00022203567
0.0002225628
0.00022362098
0.00022326273
0.00022365133
0.00022296736
0.00022198217
0.00022215016
0.00022115244
0.00021957596
0.00021707599
0.00021704681
0.00021691161
0.00021716171
0.0002195189
0.00022107702
0.00022285988
0.00022591858
0.00022846815
0.00022989909
0.00023125969
0.00023093269
0.00023337625
0.00010761027
0.00010778436
0.00010876311
0.00011063299
0.00011374425
0.00012140667
0.00012771307
0.0001373246
0.00014786957
0.00016099052
0.00017399436
0.00017996548
0.00018345931
0.000183436
0.00018801786
0.00019546803
0.00020068869
0.00020461819
0.00020699462
0.00020763645
0.00020898196
0.00020932638
0.00021061815
0.00021108203
0.00021240982
0.00021425467
0.00021648012
0.00021984556
0.00022350234
0.00022859226
0.00023387398
0.0002399148
0.00024401021
0.00024693147
0.00024743671
0.00024564177
0.00024662535
0.00024725737
0.00025131142
0.00010805272
0.00010984759
0.00011182861
0.00011757644
0.00012667237
0.00013572909
0.00014775398
0.00016033756
0.00017105675
0.00018099655
0.00019136691
0.00019797047
0.00020585384
0.0002099962
0.0002139713
0.00021626111
0.00021938643
0.00022123726
0.00022326218
0.00022514591
0.00022602054
0.00022599726
0.0002262851
0.00022575169
0.00022588222
0.00022505036
0.00022565739
0.00022463085
0.00022526399
0.0002240414
0.00022123966
0.00022160074
0.00022149865
0.00022276236
0.00022465178
0.00022574672
0.00022849898
0.00022943959
0.00023144716
0.00010664081
0.00010666701
0.00010736543
0.00010887913
0.00011115539
0.00011673237
0.0001221107
0.0001309436
0.00014302157
0.00015613936
0.00016621938
0.00016930578
0.00017605936
0.0001827129
0.00019235501
0.00019833954
0.00020066231
0.0002007697
0.00019975851
0.0002007358
0.00020136875
0.00020332482
0.0002049251
0.00020619757
0.00020711753
0.00020769484
0.00020828062
0.0002102134
0.00021223384
0.00021629926
0.00022106585
0.00022630241
0.00023186707
0.00023637691
0.0002394952
0.00023983413
0.00024295008
0.00024413415
0.00024739565
0.00010681776
0.00010815044
0.00010939207
0.00011436491
0.00012056186
0.00012822286
0.00013903954
0.00015062987
0.0001614078
0.00017435494
0.00018605866
0.00019103333
0.00019786764
0.00020039674
0.00020437241
0.0002062825
0.00020854919
0.00020930079
0.00021169809
0.00021354131
0.00021358164
0.000215294
0.00021502505
0.00021595913
0.00021637114
0.00021694794
0.0002184619
0.00022003772
0.0002221281
0.00022160683
0.00022103071
0.00021938938
0.00021922803
0.00021993751
0.00021964137
0.00022045557
0.00022240155
0.00022316372
0.00022631614
0.00010627681
0.00010614565
0.00010662247
0.00010730737
0.00010841043
0.0001107365
0.00011485105
0.00012057462
0.00013068078
0.00014181404
0.00015017358
0.00016067873
0.00017301558
0.00018469767
0.00019216044
0.00019600526
0.00019667237
0.00019574596
0.00019695089
0.00020027385
0.0002037057
0.00020732491
0.00020977239
0.00021161893
0.00021234305
0.00021247583
0.00021258207
0.00021212694
0.00021405115
0.00021589353
0.00021992244
0.00022415482
0.00022749182
0.00022938757
0.00023283165
0.00023414756
0.00023859127
0.00024030544
0.00024370633
0.00010615184
0.00010681917
0.00010728549
0.00010972328
0.00011159962
0.00011742224
0.00012553524
0.00013546676
0.00014658255
0.00016138083
0.00017211826
0.0001823569
0.00019264578
0.00019904426
0.00020621891
0.00021040076
0.00021130565
0.00021231652
0.00021313502
0.00021202504
0.0002118981
0.00021213092
0.00021404713
0.00021445231
0.00021697666
0.00021849572
0.0002208298
0.00022343804
0.00022503397
0.00022601103
0.00022632948
0.00022696713
0.00022541294
0.00022456794
0.00022295602
0.00022169031
0.00022109737
0.00022133902
0.00022236976
0.00010577887
0.00010531734
0.00010582594
0.00010622496
0.00010715085
0.00010856736
0.00011171983
0.00011599325
0.00012398656
0.00013426046
0.00014228447
0.0001532378
0.00016410877
0.00017094469
0.00017640514
0.00017903329
0.00018112061
0.00018361126
0.00018840557
0.00019263011
0.00019575449
0.00019829137
0.00020052768
0.00020100398
0.00020244803
0.00020181592
0.00020328782
0.00020305702
0.0002059099
0.00020871518
0.0002147063
0.0002204481
0.00022669751
0.00023023926
0.00023197055
0.00023048319
0.00023436437
0.00023611027
0.00024030834
0.0001053962
0.00010584469
0.00010620775
0.00010789111
0.00010890477
0.00011423218
0.00011986211
0.00012949673
0.000140675
0.00015017461
0.00015887988
0.00017086077
0.00017921443
0.00019035078
0.00019948217
0.00020346755
0.0002062476
0.00020698281
0.00020585128
0.00020548728
0.00020534765
0.00020539509
0.00020709306
0.00020796587
0.00021121265
0.00021288715
0.00021659835
0.00022060209
0.0002241987
0.00022668305
0.00022697028
0.00022567429
0.00022348655
0.00022058383
0.00021953486
0.00021727208
0.0002194693
0.00022010855
0.00022158959
0.00010537508
0.00010496949
0.0001051459
0.00010522789
0.00010533521
0.00010568126
0.0001073088
0.00010988421
0.00011656254
0.0001243355
0.00012979278
0.00014005871
0.00014553199
0.00015190775
0.00016029888
0.00016876103
0.00017765152
0.00018533454
0.0001938353
0.00019746138
0.00020113173
0.00020170512
0.00020272467
0.0002027429
0.00020327969
0.00020315465
0.00020330076
0.00020306979
0.00020342335
0.00020472817
0.00020905208
0.00021265425
0.00022093719
0.000225814
0.00023199167
0.00023178711
0.00023159241
0.00023197227
0.00023557851
0.00010505524
0.00010523554
0.00010507652
0.00010561942
0.00010613322
0.00010893722
0.00011026922
0.00011895505
0.00012663861
0.00013503317
0.00014648865
0.00015796667
0.00016620708
0.00017877478
0.00018855324
0.00019663309
0.00019901201
0.00020274729
0.00020250425
0.00020388362
0.00020378457
0.00020459663
0.00020454673
0.00020637989
0.00020672387
0.00020911143
0.00021159352
0.0002146871
0.00021877095
0.00022181057
0.00022456569
0.00022592962
0.0002237922
0.00022150202
0.00021801138
0.00021378699
0.00021480248
0.00021548448
0.00021823609
0.00010503622
0.00010455705
0.00010482374
0.00010478674
0.00010468592
0.00010472031
0.00010641864
0.0001089353
0.00011343714
0.00011407641
0.00012103031
0.00012579484
0.00012938464
0.0001391534
0.00014828862
0.000159128
0.00016752921
0.00017712813
0.00018279966
0.0001883115
0.0001926417
0.00019647452
0.00020026128
0.0002030968
0.00020563908
0.00020811948
0.00020981824
0.00021139397
0.00021201339
0.00021348722
0.00021544854
0.00021722563
0.00022103522
0.00022472204
0.00023052679
0.00023429893
0.00023483513
0.00023403742
0.00023396311
0.0001046536
0.00010488882
0.00010468093
0.0001049823
0.00010521678
0.00010689847
0.0001084191
0.00011504255
0.0001211967
0.00012626817
0.00013339577
0.0001429671
0.00015041755
0.00016201213
0.00017013061
0.0001796981
0.00018703659
0.00019435599
0.00019951956
0.00020266514
0.00020621838
0.00020815737
0.00020801301
0.00020928653
0.00021094965
0.00021107052
0.00021233654
0.0002125428
0.00021511888
0.00021729789
0.00022052741
0.00022379098
0.000226779
0.00022741973
0.00022582582
0.00022280549
0.00021704264
0.00021498973
0.00021467577
0.00010472611
0.00010440941
0.0001043881
0.00010439268
0.0001041375
0.00010412489
0.00010503036
0.00010521862
0.00010668958
0.00010837217
0.00011268095
0.00011402624
0.00011673817
0.00012399557
0.00013248922
0.00014056436
0.00014823908
0.00015686976
0.00016431852
0.00017371119
0.00017971821
0.00018714358
0.00019183109
0.00019749036
0.00020113486
0.00020578517
0.00020853776
0.00021332015
0.00021574464
0.000219173
0.00022065892
0.0002226398
0.00022352129
0.00022401426
0.00022511376
0.00022763727
0.00022999455
0.00023082839
0.00023279098
0.00010444002
0.00010439338
0.00010417938
0.00010439637
0.00010422351
0.00010482914
0.00010545203
0.0001103047
0.00011240471
0.00011541583
0.00012299946
0.00013448312
0.00014343697
0.00015454263
0.00016315834
0.00017284739
0.00018219977
0.00018968653
0.00019802961
0.00020280253
0.00020809966
0.00021205161
0.00021466097
0.00021690514
0.0002184107
0.00022111738
0.0002226092
0.00022470477
0.00022572113
0.00022561856
0.00022541255
0.0002237577
0.00022374504
0.00022434178
0.00022229663
0.00022350105
0.00021927592
0.00021708245