/*--------------------------------*- C++ -*----------------------------------*\
| =========                 |                                                 |
| \\      /  F ield         | OpenFOAM: The Open Source CFD Toolbox           |
|  \\    /   O peration     | Version:  2406                                  |
|   \\  /    A nd           | Website:  www.openfoam.com                      |
|    \\/     M anipulation  |                                                 |
\*---------------------------------------------------------------------------*/
FoamFile
{
    version     2.0;
    format      ascii;
    arch        "LSB;label=32;scalar=64";
    class       volScalarField;
    location    "100";
    object      omega;
}
// * * * * * * * * * * * * * * * * * * * * * * * * * * * * * * * * * * * * * //

dimensions      [0 0 -1 0 0 0 0];

internalField   nonuniform List<scalar> 
10720
(
1.8692129
1.8031563
1.8735937
1.9569512
2.0372741
2.1275254
2.1738204
2.3149552
2.3615628
2.4930285
2.5812494
2.7148549
2.854974
2.962251
3.1790741
3.2965895
3.5363513
3.7242627
4.0390771
4.2828947
4.6652859
4.9976051
5.5583056
6.0115097
6.792062
7.7741234
9.1138777
13.495942
17.547464
26.218229
34.161806
43.948256
47.718598
49.001272
56.240803
88.182018
101.73482
102.4122
81.89941
1.8681764
1.8851528
1.9450504
2.0132008
2.0612577
2.1676749
2.1999575
2.318062
2.3751718
2.5091174
2.5679576
2.7180915
2.7966385
2.9702991
3.063543
3.2748967
3.3939704
3.6518933
3.8012258
4.1341215
4.3360467
4.8127025
5.1180609
5.9222578
6.4146155
7.4575678
8.2847727
9.9478332
13.006439
18.29772
26.532379
37.171558
46.186227
50.078707
51.847774
67.139862
90.840334
97.556863
81.419103
5.3974219
5.5374899
5.6056271
5.7603995
6.0234131
6.3132994
6.5990514
7.0238239
7.3119811
7.7137489
8.1160916
8.4711925
9.1028959
9.6064837
10.268127
11.05034
11.801703
12.89534
14.03726
14.888985
16.007684
16.591708
16.87022
17.19616
17.785528
18.729073
20.319125
22.989032
27.9695
37.044732
51.958565
76.637083
111.10953
146.67803
170.00176
164.71965
146.80175
117.71454
105.39565
5.4857104
5.5948897
5.7743108
5.9798749
6.2710918
6.5853657
6.8782067
7.2889277
7.6456842
8.1250152
8.5513482
9.0300967
9.662917
10.096121
10.670049
11.377487
12.022673
12.612861
13.228734
13.871048
14.632302
15.407385
16.196708
17.000889
17.756133
18.550123
19.586793
21.211606
23.929788
28.819986
38.012324
54.23847
80.301557
113.00144
143.29129
156.76599
150.92058
132.13181
117.05872
3.6889632
3.7909308
3.8849031
4.0091375
4.2129618
4.4382746
4.6185508
4.8767689
5.0380706
5.2800772
5.5662209
5.8163749
6.171567
6.532687
6.9624107
7.5322581
8.0895798
8.7405637
9.2302018
9.8502114
10.406808
11.011308
11.838909
12.702251
13.789935
14.778004
16.09453
17.32516
18.909919
20.93606
23.682958
28.645311
37.403885
52.631996
63.014376
72.158992
79.226339
79.875935
79.981805
3.7471246
3.8871531
4.0131524
4.2062143
4.3640815
4.5398369
4.7016591
4.8907089
5.0826383
5.3097398
5.4930426
5.7797614
5.9819518
6.439353
6.780437
7.2747185
7.8170177
8.7949341
9.6139706
10.59339
11.32426
12.221385
12.850835
13.653476
14.248957
15.206995
15.869188
17.12698
17.978595
19.732138
21.152058
24.559366
28.957947
39.016429
50.084222
59.005346
69.691717
78.137718
80.811322
3.2950798
3.4070231
3.5082397
3.6256622
3.8228417
4.0453463
4.2186267
4.4508678
4.6227568
4.9317039
5.2360872
5.5657941
5.7676422
6.2289588
6.6386251
7.0271982
7.5151639
8.159291
8.7218226
9.2012423
9.5396693
9.8734745
10.327519
10.647409
10.748976
10.845939
10.915273
11.003117
10.990249
11.623887
11.534897
14.035869
14.857755
20.935813
23.712301
26.950365
28.882937
38.832261
54.41738
3.3525048
3.5151406
3.6414637
3.8387334
3.9474312
4.1438247
4.292599
4.4810996
4.7288165
4.9063485
5.1731666
5.4038146
5.6765279
5.9825179
6.3755626
6.8409035
7.3747568
7.9249903
8.3050492
8.6648936
9.2195798
9.4523495
9.5051805
9.6451001
9.6251062
9.7053457
9.7796534
9.7601137
9.7391693
10.101004
10.148696
10.904728
12.169278
14.44002
19.317858
21.907149
25.362403
31.778733
48.540229
3.1026753
3.185399
3.3165485
3.3994131
3.6038175
3.8276489
3.9397873
4.1382697
4.393018
4.6000401
4.8268082
4.9586699
5.1968629
5.5131493
5.7424384
6.0258902
6.4574636
6.8613779
7.2620751
7.567994
7.8890325
8.1687595
8.3485897
8.698458
8.9452059
9.0610467
9.1125973
9.113164
9.1425465
9.1483773
9.0676723
9.4011068
9.7184078
10.267058
12.420608
12.544278
15.334588
16.280336
32.984457
3.1614478
3.3377101
3.4570593
3.6188959
3.7310517
3.9505815
4.0896504
4.3305793
4.5462104
4.7049082
4.9054282
5.1785872
5.3656452
5.7021401
5.9505273
6.2275078
6.4697226
6.7289604
7.0098947
7.2267086
7.5196473
7.8343521
8.0787699
8.2966273
8.490932
8.5955588
8.6625595
8.6479735
8.6476665
8.6418215
8.6273202
8.6068642
8.8426043
8.7997852
10.153453
10.115784
12.564041
13.165036
26.265084
2.9079314
2.9580831
3.0780249
3.1484929
3.3735374
3.4976827
3.6639765
3.8956574
4.1097252
4.2776954
4.4669403
4.6489781
4.8638542
5.0958696
5.3124757
5.5254437
5.898702
6.3322506
6.7579856
7.0636677
7.3304657
7.6551767
7.8628229
7.8998161
7.9159712
7.913044
7.8968914
7.8686971
7.8325908
7.7929953
7.7581262
7.7776812
7.7945745
7.8055509
7.9989957
7.8568174
8.4201519
8.9377903
19.318644
2.9809367
3.1664552
3.2177773
3.3612734
3.5187597
3.6715738
3.8007723
4.0282567
4.1596053
4.3723905
4.6166448
4.9082852
5.1438301
5.4049947
5.7070231
5.9984134
6.2530942
6.4979165
6.7181892
6.9862278
7.2563556
7.4367913
7.4310109
7.44505
7.4506542
7.4441766
7.4289472
7.4052391
7.3749198
7.340137
7.3041291
7.2997724
7.2536354
7.2867196
7.3193502
7.1949084
7.5632294
7.6446961
14.616371
2.7737609
2.8005246
2.8888241
3.0115794
3.1960293
3.3010151
3.4971348
3.6354448
3.7861872
3.9373656
4.0989418
4.2326661
4.4273914
4.6086911
4.7681732
5.0287716
5.4020384
5.7318029
6.0403625
6.2923797
6.469463
6.6266546
6.8408447
6.9907203
7.0128009
7.0215489
7.020083
7.0089817
6.9890932
6.9615132
6.9278437
6.8931571
6.855549
6.8008496
6.7216836
6.6114588
6.5886538
6.5755161
11.789743
2.8561578
3.0085048
3.060499
3.234813
3.289682
3.3873097
3.5374298
3.6593968
3.8654009
4.07239
4.3097787
4.5411148
4.6939926
4.9942463
5.2210687
5.4587763
5.6477661
5.8126688
5.9980418
6.1818825
6.2477569
6.316918
6.3700043
6.4289135
6.4237427
6.4846626
6.526419
6.5469125
6.513744
6.5077489
6.4950262
6.4765461
6.4521384
6.4231552
6.3725375
6.2884313
6.2436715
6.1817555
9.2561855
2.6234418
2.5892246
2.6658861
2.785957
2.9316189
3.0871462
3.2031143
3.3581627
3.5431063
3.7058855
3.8557343
4.0059677
4.1935653
4.3518488
4.5363384
4.8488107
5.1822164
5.4497961
5.7027286
5.8866609
6.0650042
6.1448012
6.3259916
6.3935099
6.4742089
6.4637376
6.4670319
6.4594093
6.4423482
6.4175549
6.3865157
6.3504116
6.3070163
6.2467851
6.1663945
6.0839888
5.934498
5.896728
8.236008
2.7102896
2.8223731
2.846316
2.9343596
3.0187115
3.1083717
3.2968631
3.4274862
3.6554185
3.7830002
4.0121968
4.1810757
4.3686237
4.6565344
4.9252001
5.1250971
5.3467551
5.5212
5.6841912
5.8466395
5.9208662
5.9960895
6.0236015
6.0377639
6.0003633
5.9963438
5.9889957
5.9771364
5.9599246
5.9390978
5.9161769
5.8941772
5.871925
5.8439515
5.7550323
5.6884875
5.6257076
5.5787942
6.982777
2.5226124
2.4634538
2.5232507
2.6336089
2.7904993
2.8761743
2.9830775
3.1388853
3.2833977
3.4123808
3.5206615
3.6682966
3.8125897
3.9802118
4.2101457
4.4648107
4.7313793
4.9246113
5.0750516
5.2345071
5.3388544
5.4691575
5.5189068
5.7047801
5.8300711
5.8819572
5.9083636
5.8865904
5.8847504
5.8769618
5.8628689
5.8425166
5.8136876
5.769655
5.7152878
5.6330165
5.5635325
5.4858756
6.6216758
2.6224765
2.6864133
2.6914833
2.793674
2.8193915
2.9539781
3.0742272
3.1683468
3.2840306
3.4497712
3.5970561
3.764456
3.9985229
4.2060688
4.4629576
4.6120728
4.778232
4.935931
5.036351
5.1451245
5.2106827
5.3128607
5.3493405
5.3435972
5.3899996
5.3803
5.4223899
5.4080157
5.4146368
5.4153853
5.4091487
5.3989556
5.3828815
5.3596265
5.3199074
5.2085982
5.1701668
5.1431037
5.8782796
2.3743895
2.2927762
2.3529595
2.4558024
2.5767378
2.6634349
2.7780648
2.9243234
3.0728804
3.1983674
3.3265032
3.4610857
3.6225298
3.796091
3.9782609
4.1903343
4.3777536
4.5272139
4.6657222
4.7924802
4.9321475
5.0060279
5.1146031
5.2425749
5.4039748
5.4402888
5.4911867
5.4803921
5.4830919
5.4800504
5.4719909
5.4589587
5.4391034
5.4072507
5.3627045
5.3147225
5.243712
5.2149481
5.8290984
2.4624493
2.4869759
2.5024973
2.5656978
2.6375131
2.7428763
2.8350241
2.9335543
3.0789613
3.2202679
3.3882141
3.5547871
3.7704024
3.956938
4.1241378
4.2623391
4.4059905
4.4996767
4.646935
4.7421757
4.7995235
4.9801907
5.0712629
5.1353299
5.1333016
5.1751317
5.1664139
5.1705781
5.1787566
5.1696554
5.1639312
5.1595269
5.1034561
5.0875735
5.0591385
4.9617942
4.9169074
4.8540371
5.3046074
2.2710951
2.1996998
2.2459682
2.3007785
2.3823553
2.4386277
2.5413847
2.6959763
2.8292802
2.9539715
3.0837294
3.2136505
3.3445024
3.4982293
3.6424077
3.8054604
3.9473637
4.0624607
4.193975
4.2801216
4.380839
4.4962837
4.5695432
4.6698988
4.8219261
4.964519
5.035744
5.0745038
5.0948862
5.0758947
5.0746126
5.0688368
5.0571206
5.0359575
5.0020739
4.9629841
4.9259593
4.906218
5.3231729
2.3413409
2.3714321
2.406108
2.4421382
2.5156688
2.5769266
2.6759199
2.7641631
2.8913478
3.0027417
3.1240054
3.2623259
3.402244
3.5487697
3.6719797
3.8024931
3.9195395
4.0361073
4.1574319
4.2603076
4.3498442
4.4635622
4.6145049
4.6814477
4.7337758
4.7781111
4.7944127
4.8184053
4.8315002
4.8168376
4.8381447
4.8130916
4.8162365
4.7637474
4.7432595
4.7206163
4.6959367
4.640234
4.9357465
2.102475
2.0961483
2.1555944
2.1982595
2.2491897
2.3108399
2.44094
2.5937759
2.7199523
2.8504624
2.971362
3.090666
3.2118376
3.3357547
3.4695521
3.595782
3.7120198
3.8195497
3.9133852
4.0096647
4.1053715
4.1855864
4.2912866
4.3624704
4.4625128
4.6182998
4.7514951
4.8062196
4.8299853
4.8144933
4.8153171
4.8126207
4.8050006
4.7893362
4.7625739
4.7301263
4.7032318
4.6892843
4.9956011
2.1779912
2.219584
2.2375548
2.3057376
2.3817392
2.4471825
2.5516168
2.6462175
2.7163447
2.8091472
2.9276135
3.0672657
3.1949408
3.323383
3.4334676
3.5474189
3.6939802
3.7608953
3.9178061
4.0004903
4.0967609
4.2018466
4.3278754
4.421478
4.510595
4.5319792
4.567577
4.5786562
4.5664341
4.5872199
4.5594947
4.5560989
4.5487952
4.5379039
4.5203269
4.4989909
4.4415259
4.4329591
4.6928707
2.0020802
2.0035394
2.0618552
2.0895324
2.1345384
2.2116517
2.3295355
2.4403846
2.5540105
2.6609211
2.7682799
2.8655178
2.9692587
3.058113
3.1777934
3.274538
3.3768211
3.4741093
3.5576158
3.6545112
3.727631
3.8234442
3.9148844
3.981394
4.0568424
4.1811587
4.3158651
4.4281662
4.4801814
4.5067485
4.5180038
4.5025456
4.4998294
4.4921947
4.4787253
4.4594219
4.4441667
4.4364691
4.7401198
2.0610666
2.1085848
2.1411996
2.19087
2.227612
2.287374
2.4016427
2.437929
2.5377934
2.637046
2.7445464
2.8386034
2.9225155
3.0263011
3.1166438
3.2256347
3.3366818
3.4379836
3.5396378
3.6563179
3.7738289
3.8559077
3.9405262
4.0636767
4.1916443
4.2352565
4.2712433
4.3201999
4.3218132
4.3324821
4.3572761
4.3656345
4.3438374
4.3526451
4.3094208
4.2969459
4.2739968
4.2378028
4.4484982
1.9290046
1.9527879
2.0116976
2.0364407
2.0835306
2.1637572
2.2642643
2.353748
2.4466139
2.5456605
2.6515431
2.7368274
2.8378716
2.9331195
3.034075
3.1197751
3.2061311
3.2987352
3.3634486
3.4497346
3.5400886
3.6154527
3.7055407
3.7727378
3.8490799
3.9379268
4.0592732
4.1850692
4.2337184
4.2443001
4.2740418
4.28469
4.265888
4.2631056
4.2519201
4.2116091
4.2052474
4.2064565
4.4849811
1.9630831
2.0341415
2.0568893
2.0968235
2.1248233
2.2019936
2.2857006
2.3471638
2.4534125
2.5340023
2.6282261
2.6664173
2.7754202
2.847804
2.9374511
3.0283865
3.1173395
3.2157306
3.3122156
3.4375017
3.5231903
3.634432
3.7376003
3.833539
3.9628249
4.0336795
4.112966
4.1517848
4.1641237
4.1718749
4.1800204
4.1666453
4.177103
4.147556
4.1389487
4.1304036
4.1195843
4.1159259
4.307358
1.8954363
1.8993577
1.9346234
1.9559856
1.9969174
2.0573428
2.1137723
2.1742716
2.2500499
2.3614657
2.4394687
2.5271683
2.624743
2.7160359
2.7896269
2.8770431
2.9404377
3.009993
3.0758446
3.1515299
3.2333256
3.3140252
3.4064464
3.4739169
3.5703776
3.659992
3.741903
3.8803373
3.9826013
4.0646084
4.0905958
4.0815586
4.0820282
4.0786169
4.0706684
4.0569687
4.0465326
4.0419987
4.2652842
1.9054472
1.9479366
1.9556781
1.9841165
2.0135707
2.0690449
2.1572701
2.2109476
2.2890914
2.3543339
2.4095799
2.5027061
2.5747901
2.6526568
2.7391394
2.8025843
2.9068456
2.97759
3.0704666
3.149309
3.2633097
3.3430894
3.4548068
3.5503124
3.6303881
3.7189417
3.7971352
3.8768627
3.8936998
3.9356855
3.9393703
3.9431789
3.9512752
3.9450779
3.9403284
3.9198726
3.9162574
3.9150836
4.0975456
1.8963189
1.8787398
1.9012986
1.9181055
1.9448224
1.9829461
2.022299
2.0785821
2.1676812
2.2658593
2.3386842
2.4226836
2.5024057
2.5718511
2.6420727
2.7152565
2.7729286
2.8377742
2.9127228
2.9811601
3.0520493
3.1414761
3.2153892
3.2900442
3.3594831
3.4603334
3.5310778
3.6441201
3.7559793
3.8222288
3.8872587
3.9056904
3.9144136
3.8962544
3.8929807
3.8873523
3.8828099
3.8829784
4.0904844
1.8794508
1.9052276
1.9072778
1.932315
1.9581741
2.0018586
2.0625477
2.1309422
2.1894813
2.2558759
2.319447
2.4050038
2.4637131
2.5477425
2.6274608
2.7066068
2.7877563
2.8686743
2.9399428
3.0318658
3.1037036
3.1917942
3.2694951
3.3657499
3.4529999
3.5383355
3.6292155
3.6917942
3.7590182
3.7762412
3.8201698
3.8118067
3.816852
3.8163732
3.813106
3.8069663
3.7994678
3.7986027
3.9563163
1.8626849
1.8526336
1.8576272
1.8647468
1.8679113
1.8932679
1.9231536
1.9802646
2.0435416
2.1245907
2.1795403
2.2496041
2.3239914
2.3988912
2.4710976
2.53628
2.5984385
2.6590258
2.7264074
2.7878619
2.8670019
2.9397301
3.0250294
3.1039286
3.1730654
3.2545175
3.3290491
3.4336544
3.5047754
3.5973613
3.689309
3.7315793
3.7415862
3.7379307
3.7495556
3.7366536
3.7358823
3.736586
3.9156982
1.8541245
1.8584712
1.8582742
1.8725602
1.8806188
1.8914574
1.9647557
2.0217695
2.0775235
2.1316388
2.1964286
2.2427031
2.3087581
2.3835986
2.4660425
2.5269213
2.606691
2.6834783
2.7647389
2.8120652
2.9185942
2.9865096
3.0600859
3.1262891
3.2177659
3.2939521
3.3949341
3.4721035
3.5556057
3.598527
3.61126
3.6298875
3.65284
3.6467145
3.6629886
3.6460467
3.6596111
3.6503222
3.8047117
1.8594891
1.8454856
1.8445512
1.845186
1.8443899
1.8593423
1.8824463
1.9261382
1.9795647
2.0530747
2.0988221
2.1712378
2.2466196
2.3234939
2.3927605
2.4514019
2.5145984
2.5752161
2.6277273
2.6969077
2.764454
2.8351942
2.9151655
2.9884157
3.0728889
3.1446062
3.2273612
3.3124062
3.3707611
3.4515286
3.5381847
3.5632147
3.5931383
3.5881773
3.6025153
3.5966469
3.6090966
3.6038533
3.7598018
1.8486769
1.843287
1.8407875
1.8471679
1.8480621
1.8606569
1.9288522
1.9680212
2.0239297
2.0725289
2.1211735
2.1740715
2.2322526
2.2962599
2.3397482
2.4049161
2.4775435
2.5486152
2.6326261
2.7084946
2.7911448
2.8703865
2.9505579
3.0145894
3.1069967
3.1699907
3.2450807
3.3066144
3.3856699
3.4165997
3.4530448
3.4862099
3.4948567
3.4914432
3.4933489
3.498524
3.5140709
3.5099726
3.6589144
1.8340177
1.8300141
1.8264039
1.8247921
1.8194296
1.8263595
1.8284566
1.8478458
1.8932437
1.9320444
1.9727965
2.0382516
2.1106578
2.1900393
2.2491667
2.3097458
2.3642976
2.4096416
2.4650786
2.5156156
2.5758935
2.6413357
2.7140015
2.7894124
2.8662208
2.9486426
3.0335036
3.1210168
3.200437
3.2523296
3.343366
3.4233121
3.4523511
3.4778121
3.478872
3.4914023
3.4935604
3.499251
3.639622
1.8305722
1.8257891
1.8232479
1.8223537
1.8240009
1.8323736
1.8668878
1.8850296
1.9297897
1.9662383
1.9990253
2.0548322
2.1049699
2.1539573
2.201321
2.2685298
2.3268647
2.3952567
2.4726485
2.5510942
2.6271892
2.708136
2.7958704
2.857462
2.9204387
2.9900814
3.0459182
3.1431991
3.2181795
3.2721298
3.336103
3.3673117
3.3740584
3.369772
3.3672192
3.370104
3.3827567
3.3781227
3.5073844
1.8325652
1.8297124
1.8258638
1.8175117
1.8144747
1.8117546
1.812147
1.8245797
1.8615556
1.874041
1.9158235
1.9551208
2.0237026
2.0873155
2.1515561
2.1983199
2.2255324
2.2734406
2.3201852
2.381403
2.4456374
2.5093496
2.5664694
2.6370488
2.6979605
2.7658189
2.8426408
2.9200383
3.0003881
3.0649937
3.133344
3.2029281
3.2723374
3.3182628
3.3454063
3.3507766
3.3561656
3.3619913
3.5023037
1.8268695
1.8240784
1.8209338
1.8191192
1.8140279
1.8204447
1.8257778
1.8504804
1.8740321
1.8988278
1.9263798
1.9885651
2.0306789
2.080385
2.144056
2.1956972
2.2560049
2.3263521
2.3907224
2.4689068
2.5327174
2.6121451
2.6813599
2.7389581
2.8004921
2.872543
2.953877
3.0159622
3.0823173
3.1470048
3.1771533
3.2190677
3.2465275
3.2526169
3.2495457
3.2625852
3.271671
3.2799908
3.3882776
1.8297551
1.824778
1.8157081
1.8078307
1.8049267
1.8058577
1.8034309
1.8079409
1.817964
1.81582
1.8273706
1.866961
1.9192305
1.9826866
2.0157429
2.0328326
2.0665159
2.1173627
2.1736116
2.2441189
2.3080968
2.3797047
2.4409887
2.5103133
2.5711187
2.6312845
2.7025926
2.7765585
2.8595486
2.9340857
2.9974182
3.0452361
3.0917356
3.1297043
3.1801007
3.2217198
3.240976
3.2425001
3.3711609
1.8251895
1.8155443
1.8130154
1.8107683
1.8087211
1.8081416
1.8077366
1.8095105
1.8124662
1.829249
1.8462624
1.8943549
1.9274275
1.9825232
2.0337753
2.089636
2.144205
2.2053126
2.2689329
2.326772
2.3921821
2.4601466
2.5200569
2.5805894
2.6360427
2.6961892
2.7469377
2.8177489
2.871009
2.9493386
3.041621
3.0846517
3.1256431
3.1400719
3.1513865
3.1541337
3.1604663
3.1564327
3.2650181
1.8334101
1.8276716
1.8205834
1.8101259
1.8068011
1.8014521
1.8013963
1.8015184
1.7987892
1.7992002
1.8057136
1.8477836
1.8865216
1.9057183
1.9260191
1.9451437
1.9952184
2.0375658
2.10582
2.1603149
2.2291881
2.2876396
2.345162
2.3996407
2.4528848
2.5069586
2.5702288
2.6331393
2.7158846
2.7908806
2.8670747
2.9334566
2.9893507
3.0309331
3.0800028
3.1227078
3.1389161
3.1384522
3.2522343
1.8290874
1.8201762
1.8165473
1.811964
1.809528
1.8027205
1.7976837
1.7938052
1.7909707
1.8006248
1.8124496
1.8557124
1.881767
1.9312649
1.972832
2.0177823
2.0778117
2.1325382
2.1921853
2.2513656
2.3209949
2.3814649
2.4451756
2.4988351
2.5533964
2.6046613
2.6536104
2.704959
2.7534132
2.8254451
2.887763
2.9611685
3.0042302
3.0281678
3.0637049
3.0654643
3.0818743
3.0794635
3.1652173
1.8334995
1.8295555
1.8194978
1.8096501
1.8040414
1.8024067
1.8000464
1.7958396
1.790031
1.7879973
1.7894732
1.8000193
1.8017777
1.8023183
1.819031
1.8500756
1.89384
1.9417399
1.9969207
2.0413808
2.0965715
2.1361858
2.1898985
2.2341961
2.287808
2.3344391
2.3926792
2.4575529
2.5255584
2.6019009
2.6817244
2.7523434
2.8400924
2.915242
2.9739327
3.0117714
3.0359115
3.0403426
3.1443946
1.8300817
1.820685
1.8166521
1.81143
1.8077803
1.8039345
1.7960802
1.7877564
1.7798513
1.7813425
1.7789779
1.7932382
1.8056041
1.8420713
1.8665853
1.9097428
1.966266
2.0133401
2.0658394
2.1281472
2.1948999
2.2525671
2.307416
2.3624917
2.4091439
2.4648237
2.5104572
2.5620289
2.616847
2.6752816
2.7209495
2.7630491
2.8145734
2.8634604
2.906296
2.9529455
2.976305
2.9806924
3.0688171
1.8403147
1.8381129
1.8290629
1.8194191
1.8113864
1.8059858
1.8026197
1.7964793
1.7901498
1.7836292
1.7835378
1.7795421
1.7694046
1.768142
1.7752439
1.7981879
1.8356131
1.8713352
1.9077613
1.9475932
1.9959771
2.0421237
2.0965218
2.1474888
2.198176
2.2530578
2.3013799
2.3705037
2.4280017
2.4988984
2.554596
2.6153916
2.6793662
2.7448368
2.8321005
2.9108517
2.9435254
2.9494395
3.0438702
1.8384132
1.8300561
1.8263222
1.8192593
1.8115278
1.803407
1.7923188
1.7843554
1.7771172
1.7753513
1.7729257
1.771496
1.7837841
1.7851936
1.8061297
1.8500019
1.8928932
1.943814
2.0010697
2.0567071
2.1072021
2.1633364
2.2152951
2.2714379
2.3205114
2.3743834
2.4156588
2.4599583
2.5066046
2.5630904
2.6144965
2.6672251
2.7161498
2.7704597
2.808258
2.8540685
2.8727345
2.8754073
2.9569214
1.8458681
1.8450103
1.8404926
1.8334752
1.8268175
1.8192719
1.809801
1.7988694
1.7911389
1.7833026
1.777593
1.7718777
1.7634083
1.7542539
1.7500272
1.7515278
1.7591724
1.7715543
1.7900428
1.8202356
1.8516589
1.8986042
1.948954
2.0006134
2.0586127
2.1100775
2.1693816
2.232094
2.3053271
2.3793896
2.4456924
2.5179397
2.5644058
2.623326
2.6687261
2.7376771
2.8259352
2.8495118
2.9433433
1.8443897
1.8388764
1.8378648
1.8319495
1.822138
1.8085883
1.795538
1.7865458
1.7784498
1.7725952
1.7648196
1.7636628
1.7616404
1.76305
1.7678845
1.7892488
1.8350371
1.8759042
1.9263179
1.9751283
2.0216391
2.0703675
2.1207589
2.1656778
2.2126367
2.2569714
2.3057363
2.3491578
2.4008106
2.4471974
2.5004801
2.5492733
2.6129259
2.6637005
2.7268821
2.7790644
2.797364
2.7970158
2.8577948
1.8512579
1.8502164
1.8455357
1.8385881
1.8351399
1.832267
1.8221731
1.8091574
1.7954663
1.7836739
1.7769039
1.7716543
1.7632824
1.7525081
1.7483486
1.7400242
1.7399685
1.7373899
1.7557454
1.7699659
1.7961987
1.8222261
1.8534129
1.8883805
1.9348113
1.9768285
2.0369464
2.0974755
2.1714565
2.2431791
2.3222549
2.3954416
2.46564
2.5287116
2.5859592
2.6184129
2.6917671
2.7245705
2.8397118
1.8488524
1.8445837
1.8443113
1.8393325
1.8334327
1.8190143
1.802632
1.7921547
1.7807457
1.7725092
1.7653126
1.7596569
1.7601437
1.7580838
1.7673698
1.7770175
1.8070942
1.8317748
1.8648047
1.9108078
1.9390634
1.9810877
2.0315667
2.0714739
2.1039637
2.1498629
2.1952511
2.2461467
2.2935385
2.3440488
2.3874018
2.4260915
2.4713509
2.5071
2.5536306
2.5933519
2.6671308
2.6968047
2.7727288
1.858629
1.8585921
1.8544089
1.8479319
1.8452296
1.8419518
1.8323685
1.8205914
1.80688
1.7904955
1.7816448
1.7719714
1.7630495
1.7535454
1.7470602
1.7344794
1.7274796
1.7198105
1.7238353
1.7197421
1.7395765
1.7523937
1.7873562
1.8102107
1.849599
1.8766842
1.9221748
1.966009
2.0337294
2.0992249
2.1788249
2.2510687
2.3325329
2.4053992
2.4957348
2.5466232
2.6138157
2.6340221
2.7192116
1.8571655
1.8546134
1.8537488
1.8478429
1.8412372
1.8282514
1.8182955
1.8050712
1.7932293
1.7796438
1.7723402
1.7616807
1.7567434
1.7517554
1.7514325
1.7467749
1.7613597
1.7719975
1.7934172
1.823664
1.8537572
1.8839452
1.9176043
1.9584369
1.9929908
2.0249886
2.0592143
2.0963594
2.1468686
2.201485
2.261168
2.3222734
2.3708134
2.4207813
2.4768528
2.4975934
2.5540512
2.5852452
2.674755
1.8627789
1.8629965
1.8613272
1.8559161
1.8550788
1.851237
1.8397494
1.829239
1.8172937
1.8039446
1.7955917
1.7790194
1.768855
1.7558436
1.7481553
1.7350202
1.7264477
1.7157913
1.7131905
1.7106415
1.7193105
1.7245228
1.7495375
1.7696517
1.807308
1.8353262
1.8782186
1.9115801
1.9627644
2.0042724
2.0667724
2.116461
2.1818595
2.2415105
2.3232367
2.3925539
2.5038687
2.5550302
2.6378593
1.8612781
1.8596322
1.8604443
1.856466
1.8494966
1.8395757
1.8263377
1.8158966
1.8080414
1.7926896
1.7830916
1.7688898
1.7593976
1.7549379
1.7460578
1.7397438
1.74808
1.7445477
1.7551623
1.7817464
1.8043946
1.831549
1.85966
1.8919623
1.9161055
1.9428573
1.9723249
2.0051873
2.0499551
2.1031829
2.1523036
2.2063092
2.2536893
2.2968805
2.3621129
2.3873847
2.4561124
2.4842788
2.5571799
1.8715709
1.8724523
1.8694045
1.8637058
1.8619075
1.8559934
1.8450347
1.8398681
1.8291523
1.8203163
1.8099291
1.7952127
1.7813515
1.7623455
1.7499893
1.7351294
1.7267652
1.7144365
1.7118503
1.7095069
1.7174672
1.7210463
1.7460502
1.7670863
1.8063462
1.8343932
1.8781658
1.9085371
1.950057
1.9799268
2.0163976
2.0561377
2.1051258
2.1495216
2.2120726
2.2547341
2.3369036
2.4034056
2.5253942
1.8695722
1.86893
1.8683035
1.8624967
1.858065
1.8484137
1.8355498
1.8279952
1.8195725
1.8075554
1.7922608
1.7780472
1.7671267
1.7575413
1.7475421
1.7407481
1.7341525
1.7244567
1.7234691
1.7277453
1.734752
1.7498236
1.7729969
1.7980841
1.8219076
1.8473643
1.877582
1.9123419
1.9497932
2.0028552
2.0512071
2.1081783
2.1689239
2.210788
2.2780712
2.3109292
2.3658347
2.4002537
2.4725211
1.878403
1.8784977
1.8765443
1.8713235
1.8689075
1.8613124
1.8547039
1.8506233
1.8404309
1.8328881
1.8196306
1.8055378
1.7903597
1.7732485
1.7566485
1.7426781
1.7301247
1.7165353
1.7103665
1.702071
1.7032415
1.7039043
1.724063
1.7443679
1.7764236
1.7976896
1.8311129
1.8561272
1.8957913
1.9226317
1.9605018
1.9878369
2.0330776
2.070705
2.1364532
2.1770908
2.2542624
2.2933079
2.4019316
1.8757688
1.8749202
1.875368
1.8715955
1.8661317
1.8554842
1.8420155
1.8371462
1.8280608
1.8184154
1.8039281
1.7933812
1.7776007
1.7648528
1.7551002
1.7458998
1.7365539
1.7258808
1.7157672
1.7120165
1.711028
1.7151805
1.727036
1.7499539
1.7711184
1.7932725
1.8183512
1.8448507
1.8859216
1.9281211
1.9808254
2.0240769
2.073979
2.1043828
2.1624403
2.2001361
2.2657399
2.3136533
2.3878423
1.8860571
1.8868761
1.8853584
1.8781896
1.8758435
1.8692037
1.8630646
1.8602257
1.8510679
1.8408642
1.8271353
1.8134234
1.7977529
1.7874696
1.7712055
1.7577386
1.7454635
1.7288057
1.7182984
1.702619
1.6947066
1.683995
1.6846745
1.6885745
1.7018477
1.7179054
1.7392195
1.7605553
1.7919188
1.8172091
1.8546049
1.8785425
1.918204
1.9472279
2.0015554
2.0461553
2.130776
2.1816541
2.2935872
1.8842676
1.8843861
1.8842505
1.8797013
1.87138
1.8611601
1.8505865
1.8448541
1.8387805
1.8264451
1.8165544
1.80498
1.7889615
1.7764348
1.7598364
1.7513365
1.7378369
1.7303497
1.7191013
1.7081989
1.6997248
1.7001666
1.7014641
1.7033812
1.7078076
1.7193808
1.7360218
1.7581651
1.7841573
1.8235892
1.8726993
1.9248682
1.9847485
2.0144535
2.0661438
2.0898078
2.14794
2.1925785
2.2678673
1.8953962
1.8960583
1.8932085
1.8865669
1.8839773
1.8782138
1.8747623
1.8705832
1.8590491
1.8460525
1.837386
1.8234381
1.8121013
1.801317
1.7889672
1.7719024
1.7579325
1.7395313
1.7299549
1.7116964
1.7028367
1.6870484
1.6777403
1.6653722
1.6675257
1.6690277
1.6837505
1.702163
1.7314093
1.7585056
1.7917917
1.8226268
1.8587432
1.8845943
1.9299229
1.953332
2.0129353
2.0674129
2.1757433
1.8927272
1.8922973
1.8921715
1.8876886
1.8785915
1.868703
1.8611924
1.8536168
1.8480122
1.8362402
1.8254393
1.8099138
1.8003323
1.7828519
1.7705285
1.7580642
1.7443888
1.7326611
1.7229161
1.7143572
1.7016311
1.6915578
1.6787917
1.6759798
1.6692927
1.6720137
1.6780012
1.6871909
1.7034616
1.7233547
1.757225
1.7979328
1.8618241
1.9078001
1.975585
2.0114128
2.0638459
2.1187902
2.1844256
1.9039798
1.9048099
1.9028097
1.8964318
1.8920755
1.8867219
1.883551
1.8781869
1.8640442
1.8551914
1.8477752
1.8325825
1.8279329
1.8151514
1.801063
1.784832
1.7700813
1.752158
1.7422594
1.7240686
1.7136927
1.6967839
1.6843202
1.6657812
1.6492895
1.6438646
1.6396858
1.6441337
1.6544157
1.6756709
1.7029632
1.7322318
1.7764398
1.8058288
1.8626693
1.8905533
1.9481539
1.9747304
2.0644959
1.9017164
1.9018749
1.9017499
1.8961264
1.8859741
1.8779351
1.869577
1.8601713
1.8545322
1.8415175
1.8281143
1.8218431
1.8078469
1.795377
1.7833066
1.7668449
1.75425
1.7385404
1.7266016
1.7167772
1.7063163
1.6929703
1.6793385
1.6691304
1.669093
1.669975
1.673549
1.675427
1.684409
1.6960811
1.7258729
1.750513
1.8011591
1.8359549
1.8957708
1.942332
1.9948809
2.0460214
2.1127993
1.9148882
1.9154798
1.9117519
1.9057806
1.9006404
1.8984043
1.8923344
1.8857304
1.8732408
1.8663306
1.8575492
1.84652
1.8371141
1.819434
1.807581
1.791279
1.7791668
1.7631075
1.7503319
1.7298393
1.7192347
1.7008693
1.6859916
1.672666
1.6531904
1.6414089
1.6243766
1.6226467
1.6209484
1.6338223
1.6548447
1.6738031
1.7175452
1.7399242
1.7970455
1.8276601
1.8922841
1.9151716
1.9866741
1.9123407
1.9123341
1.9118361
1.9061886
1.8953838
1.885408
1.8767265
1.8685198
1.8623285
1.8483369
1.8382728
1.8279918
1.813639
1.8030112
1.787024
1.7763908
1.7603561
1.7485743
1.7338031
1.7219949
1.7135711
1.6995521
1.688643
1.6719287
1.6548265
1.6434128
1.6449728
1.6390824
1.6507828
1.664386
1.6940222
1.7187754
1.753546
1.7791588
1.8124402
1.8479481
1.9024691
1.9397685
2.0234033
1.9249695
1.9259302
1.9223719
1.9169027
1.910733
1.9061548
1.899682
1.8948372
1.8822703
1.8768938
1.8663749
1.8548914
1.840318
1.8301772
1.8138583
1.8061534
1.7877983
1.7759461
1.7607203
1.7412303
1.7284891
1.7068234
1.6911991
1.6800173
1.6578027
1.6462392
1.6262164
1.6154268
1.60415
1.6045979
1.6206016
1.62517
1.6541232
1.6737706
1.7199413
1.753502
1.8106026
1.8647152
1.9443088
1.9225707
1.9227919
1.922135
1.9145793
1.9020201
1.8940937
1.8880465
1.8798155
1.8702294
1.8529722
1.8426365
1.8283081
1.8193153
1.8025247
1.7937411
1.7795618
1.770107
1.755433
1.7468485
1.7325532
1.7221167
1.7062022
1.695131
1.6753185
1.6652225
1.6456887
1.6356765
1.620885
1.6219559
1.6229141
1.6396911
1.6594419
1.6962955
1.7302625
1.7686257
1.7990774
1.8361173
1.8689267
1.9486501
1.9374621
1.9382336
1.9342431
1.9278045
1.9210014
1.9185938
1.9121049
1.9051693
1.8963605
1.8886174
1.8766339
1.8630342
1.8522528
1.8379166
1.8276432
1.8148761
1.7997469
1.7884942
1.7690448
1.7534664
1.739975
1.7162766
1.7042153
1.683884
1.6706623
1.6477938
1.6358522
1.6139801
1.6027654
1.5914203
1.6001608
1.6050217
1.6286422
1.6485898
1.6803779
1.7014102
1.7463634
1.7735448
1.8497403
1.9350113
1.9353953
1.9342696
1.9258373
1.914139
1.9070148
1.900506
1.8866825
1.8761346
1.8600191
1.845321
1.83755
1.8232077
1.8109595
1.8025298
1.7947304
1.7837322
1.7719257
1.7604719
1.7474529
1.7302296
1.7148331
1.7029548
1.6831913
1.6690932
1.6526075
1.6400521
1.616385
1.6061556
1.592624
1.5951325
1.5955244
1.6153389
1.6436803
1.6849433
1.7259091
1.7722263
1.8076214
1.8784912
1.9494008
1.9501329
1.9451593
1.9387405
1.9332088
1.9284182
1.921693
1.9164029
1.9050928
1.894226
1.8823907
1.8670325
1.8573005
1.8418961
1.8339193
1.8174936
1.8078491
1.7895321
1.7777453
1.7572025
1.7468048
1.7281946
1.7136084
1.6925151
1.6803371
1.6602357
1.6501235
1.6292673
1.6147942
1.5903546
1.5810631
1.5719039
1.5772492
1.5944052
1.6349508
1.6618055
1.7092161
1.7373753
1.7918195
1.9467855
1.9472724
1.9454918
1.9345495
1.9239527
1.9169471
1.9075543
1.8963575
1.883318
1.8632795
1.856417
1.841844
1.8304468
1.8185355
1.8110791
1.8013478
1.7908308
1.7803173
1.7678035
1.7549191
1.7407289
1.7234141
1.7118551
1.6914375
1.6779102
1.659542
1.6495071
1.6265638
1.6138358
1.5895729
1.5793542
1.5679668
1.5736002
1.5889324
1.6102895
1.6433106
1.68285
1.7224641
1.7716676
1.9633062
1.9643042
1.9592943
1.9522604
1.9473283
1.9424531
1.9379067
1.9292076
1.9150692
1.9023782
1.8874943
1.8754877
1.8617309
1.8486081
1.8371872
1.8241106
1.8121279
1.7954947
1.7841498
1.7701329
1.7528756
1.7412408
1.7190398
1.7057529
1.6876308
1.6692304
1.6570013
1.6366097
1.6252235
1.6027719
1.5869901
1.5615738
1.5530011
1.5457371
1.5588227
1.578286
1.6243012
1.6564359
1.7184747
1.9610092
1.9617349
1.9592287
1.9479063
1.9392406
1.9303824
1.9216996
1.9102711
1.8893431
1.8755943
1.861929
1.8460477
1.8343088
1.8218456
1.8144979
1.8009024
1.7941102
1.7804501