/*--------------------------------*- C++ -*----------------------------------*\
| =========                 |                                                 |
| \\      /  F ield         | OpenFOAM: The Open Source CFD Toolbox           |
|  \\    /   O peration     | Version:  2406                                  |
|   \\  /    A nd           | Website:  www.openfoam.com                      |
|    \\/     M anipulation  |                                                 |
\*---------------------------------------------------------------------------*/
FoamFile
{
    version     2.0;
    format      ascii;
    arch        "LSB;label=32;scalar=64";
    class       volScalarField;
    location    "100";
    object      omega;
}
// * * * * * * * * * * * * * * * * * * * * * * * * * * * * * * * * * * * * * //

dimensions      [0 0 -1 0 0 0 0];

internalField   nonuniform List<scalar> 
16045
(
367.78369
320.6961
284.7472
257.27641
235.65276
218.92124
206.16479
196.45115
189.30763
184.44708
180.43139
177.22259
173.57359
169.9427
163.76096
159.05216
151.24147
144.51948
137.0052
130.20147
123.73646
117.82869
113.20471
108.42961
106.17747
106.58132
106.95803
107.99769
112.70988
130.83286
264.97668
539.97669
572.62053
316.54464
229.45314
213.1101
182.43795
161.24861
148.30371
140.97651
136.33147
133.63687
129.40501
126.75468
123.93217
121.50208
118.94383
115.77789
112.58478
109.12299
105.48938
102.27566
98.634
94.957334
91.618144
87.291905
83.366056
78.777248
75.34599
71.14267
67.962872
64.270793
60.731313
57.63058
54.857668
51.814778
49.463776
47.092196
45.372743
43.005713
40.944321
39.465247
37.716753
36.461306
34.885061
33.932316
32.660938
31.577218
30.546368
29.755347
29.165334
28.678714
28.282251
27.998991
28.572612
29.218248
31.153573
32.183864
33.954343
35.683628
37.239231
38.791916
40.853519
43.940705
48.299098
52.841581
56.31259
57.59672
56.810897
53.273813
367.7702
320.63532
284.67341
257.23674
235.91674
219.42787
207.54921
198.04964
192.20149
187.99248
184.86096
182.09877
179.15198
175.35567
168.96066
164.50917
154.94952
148.26987
140.08413
132.52409
125.90577
119.7208
114.55745
114.48914
114.30345
114.57983
116.33499
120.58037
127.7338
163.35486
310.11208
502.15439
629.25617
612.07478
632.2233
504.67519
388.80008
299.21296
214.58699
182.92537
166.03141
156.5055
152.40309
148.16073
144.49859
140.8392
137.2533
133.14871
128.03645
123.38748
117.99848
112.99459
108.12511
103.41415
99.564962
95.043523
90.299579
84.951485
80.855713
76.358591
72.547779
68.910256
64.824506
61.08269
58.069731
54.781791
52.274976
49.367212
47.457619
45.037445
42.615904
40.98539
39.100495
37.778815
36.042133
34.933381
33.714639
32.55887
31.445844
30.330326
29.329977
28.746864
28.22408
27.886955
27.118072
26.608066
27.147205
27.801284
28.854619
30.99263
33.520859
35.662532
37.764524
40.522768
45.016999
51.835934
57.933789
60.551779
62.821878
63.316006
367.81202
320.71074
284.54812
257.10754
235.5822
218.94355
207.20781
197.41037
192.67618
188.4823
185.36959
182.62795
179.43648
175.18135
169.45978
164.0595
156.31759
148.89545
141.56636
134.37382
128.55756
122.52377
118.05909
117.14014
117.33868
116.69292
117.13107
120.73074
129.32381
158.48229
331.17472
491.46849
578.30102
604.44119
620.42816
603.78699
608.54236
582.4154
381.49038
268.02023
200.50332
167.48423
156.83752
153.92222
149.28538
145.41307
141.35215
136.97322
131.22098
125.88694
120.11294
114.48469
108.80233
103.80387
99.733816
95.351795
90.751986
84.930443
80.956186
76.456949
72.527888
69.303583
65.295374
61.272422
58.365639
55.064485
52.588163
49.524561
47.628497
45.276405
42.803
41.144158
39.277992
38.057688
36.29569
35.13446
33.949502
32.827415
31.709035
30.583431
29.422417
28.624761
27.936468
27.42644
26.982952
26.375198
25.943137
25.830021
25.805039
26.305527
27.316677
28.856718
31.810378
35.307676
39.455057
44.344057
50.660491
54.702603
56.562931
57.168393
367.82317
320.71947
284.69597
257.41234
235.86807
220.5425
208.82854
201.14111
196.82513
192.51391
190.20489
187.86063
184.47181
180.28645
175.21913
168.61565
161.6601
154.51695
147.68453
140.88214
135.41029
129.11775
125.36922
126.39196
126.12687
125.53795
124.20244
125.79067
130.46441
153.56382
265.70737
374.78931
452.42478
495.76639
523.77001
536.13524
553.13422
591.93844
633.85616
774.33858
515.63546
208.92229
177.31289
160.4796
157.9414
155.5329
150.91757
146.02945
141.47497
134.63122
128.51526
123.18813
116.45958
111.41542
105.54679
101.139
94.929261
89.602524
84.797255
81.058124
76.238751
73.695148
68.829668
64.843403
60.760702
58.12044
55.257234
52.09267
49.426325
47.323744
44.693352
42.827062
40.878111
39.49713
37.722264
36.325499
34.926783
33.821687
32.861758
31.618387
30.568519
29.495214
28.307582
27.502489
27.064886
26.291904
25.996239
25.705871
25.587634
25.327114
25.748861
25.935829
27.058137
28.301892
30.859498
33.947657
38.648935
43.023094
44.700828
45.31338
368.15287
320.48651
285.37506
257.41681
236.74098
221.98127
209.98778
204.82324
199.14796
197.18967
196.09258
195.4402
192.47855
190.58406
185.71358
179.73208
172.51192
165.69891
159.39004
158.96551
157.42795
147.80571
147.12403
145.23713
140.52616
136.46542
135.85778
135.19512
135.80481
143.10053
212.86097
287.95984
326.307
352.4882
366.1719
373.12068
384.25246
418.48811
437.52741
494.12094
526.08507
551.36217
257.83395
168.26798
159.00236
160.30175
155.33292
150.63701
146.54428
140.14775
133.49652
127.62466
121.34637
114.80206
109.5877
104.36715
96.932212
92.338352
86.308122
83.128432
79.270275
74.93091
70.706998
66.638198
62.04326
59.143173
56.477465
53.864136
50.466916
48.344505
45.934883
43.87721
41.75662
40.081822
38.36706
36.867157
35.452827
34.327878
33.472531
32.245799
31.106203
29.892024
28.500373
27.444304
27.125627
26.342588
25.992878
25.509975
25.180415
25.062109
25.129535
24.89188
25.630488
25.957615
27.371629
28.586133
30.352792
31.550438
31.982612
32.417162
368.25071
320.39681
285.87339
257.22256
238.601
222.73502
214.32433
207.87684
205.08208
205.25631
209.79981
209.81687
208.31916
215.80894
208.29326
204.08103
194.22963
187.43549
192.0722
188.22739
182.5345
171.7795
166.31648
160.56964
156.03561
151.8853
149.80722
148.34077
145.25268
154.8886
173.50158
247.22507
302.65204
312.95711
319.0853
324.52276
327.15986
339.76914
346.98234
387.36716
400.62722
427.99007
270.51458
195.17392
168.96646
166.81469
162.35451
158.1241
153.28932
148.96479
141.79024
135.51642
128.93938
121.8108
114.50503
108.62627
102.19294
97.594597
90.239671
85.622538
82.108354
77.374066
72.849537
68.286296
64.387394
60.895818
58.08946
55.265959
52.429672
49.951808
47.605784
45.423558
43.297812
41.175518
39.49997
37.729495
36.507869
35.3325
34.68429
33.632787
32.476597
31.014388
28.867629
27.158818
26.765994
26.227047
25.561011
24.961532
24.913262
24.879301
24.458762
24.585613
24.702539
25.02439
25.614783
26.138931
27.364881
27.44348
28.034839
28.022712
368.15663
321.00497
285.55328
258.73482
239.41156
225.91614
218.02093
212.97321
214.41807
217.62567
225.73049
241.63658
245.0302
256.22098
253.67604
251.64108
236.55549
225.12063
221.19558
214.00755
208.98506
203.02116
195.9951
188.63199
183.56876
178.63908
175.90067
173.59755
164.31483
164.64425
183.72236
216.56916
285.96347
329.28344
340.37777
341.14096
344.17815
345.46316
355.05394
362.80896
403.20648
389.65724
288.95148
205.45415
180.94254
183.63903
172.55442
167.04206
159.58562
153.50677
145.87675
139.87997
132.2466
123.63409
118.89051
111.57876
104.71097
99.319885
94.92412
89.071846
83.955152
79.174812
74.627639
69.847912
66.470762
62.610494
59.392142
56.675894
53.887109
51.0653
48.641128
46.471449
44.393872
42.401341
40.702358
38.530691
37.501803
36.41585
35.83209
35.434728
34.377549
32.605415
29.510282
27.583092
26.117828
26.111497
25.377404
24.922085
24.62877
24.657947
24.53845
24.514056
24.214481
24.473291
24.804064
25.107004
25.752439
25.995531
26.033192
26.144171
367.95887
321.41026
285.90799
259.99601
241.29745
229.56454
222.9033
223.22636
226.26845
236.49091
251.83202
263.59557
272.69749
295.77799
283.91492
264.62394
280.19067
280.81617
264.32668
250.63976
240.52309
229.90799
219.39997
211.94031
204.56228
199.66434
193.94275
191.69043
190.64643
182.49488
190.24246
228.65905
269.46322
340.82996
365.07154
369.33799
374.65258
373.4147
388.32306
389.63801
388.70794
384.27957
278.3741
234.18192
206.0918
222.89923
190.421
170.85626
164.4949
158.01218
149.05264
144.60934
134.68004
122.36363
119.96735
107.78115
102.06291
100.21155
91.796147
87.220065
81.166706
77.374815
72.257225
70.139772
66.373851
61.39922
60.927124
57.536373
54.171209
51.417411
49.118334
47.12262
44.999167
43.92851
41.591069
39.610054
38.649762
37.723876
37.565542
38.002293
37.853939
35.824042
30.044897
27.862674
25.811739
25.235946
24.939658
24.535744
24.15379
24.048622
23.978009
24.030553
23.840592
23.915
24.376122
24.631177
24.787662
24.791345
25.01384
24.832831
368.11988
321.69558
286.40767
261.24566
243.92894
233.83575
232.20725
235.64356
246.89706
265.6894
288.8451
299.7473
337.28641
342.55176
342.12694
346.03272
383.01996
373.15793
371.52154
347.69097
318.82421
288.0234
261.76147
243.32848
228.49115
222.50441
212.89757
212.20435
208.87779
205.59628
205.15547
234.70134
288.74048
339.56576
393.39948
408.83727
408.64804
406.36529
409.98017
436.59958
373.77777
334.59164
286.52973
271.35007
266.3248
284.31403
207.39468
174.92676
161.16267
153.76301
142.21004
138.42707
129.5393
122.57062
118.36009
111.72795
105.69089
98.221437
93.038356
88.309876
84.067377
78.169526
75.503195
70.63808
66.688077
61.775664
58.495505
57.579189
52.412754
52.45134
50.250154
48.33143
45.092745
44.958879
42.10495
40.711968
39.823949
39.371146
40.041991
41.298095
42.825555
42.007763
30.686254
28.029324
25.270261
24.418833
24.114296
23.691121
23.49542
23.661546
23.564122
23.567662
23.339923
23.809769
24.055482
24.35124
24.645417
24.620938
24.676052
24.425904
368.05714
322.03886
287.09315
263.44369
247.21063
240.8574
244.66388
255.9649
283.37567
307.34365
337.31862
359.63576
374.9677
401.30447
431.69738
473.14798
524.11547
523.5101
535.251
518.89891
478.55423
433.15096
374.06745
324.91066
285.25559
257.65017
241.65416
227.79039
224.152
220.68634
221.3927
233.22984
282.84062
347.19211
395.89453
414.81895
415.48351
400.52281
401.68874
391.55057
365.0667
342.3332
290.42374
297.50781
327.9688
333.29417
213.60765
179.75316
163.04336
154.08655
140.79082
138.98344
127.97043
123.17461
117.40029
110.42084
104.01884
96.459566
87.555649
87.509316
79.048994
75.598207
71.120536
69.72855
64.57872
62.53054
59.031757
57.222879
53.428366
51.974289
49.72102
47.930144
46.57838
45.303493
43.193345
42.013111
40.700407
41.450909
42.06816
46.475929
51.055589
49.636278
32.257764
27.843647
24.354241
24.116511
23.702877
23.547787
23.112831
23.433754
23.428071
23.372118
23.478404
23.390248
23.650662
23.924903
24.233037
24.31616
24.322055
24.076598
368.75879
321.7087
288.59403
264.72963
249.27244
253.07196
264.8513
289.65148
337.21898
367.16534
409.93114
447.68502
507.8921
556.3124
625.99959
693.44016
743.0712
803.35279
819.51703
854.39135
841.26806
803.51538
714.96734
597.32659
480.37611
390.87033
330.4731
288.93076
273.27771
265.29942
253.81239
251.6534
275.60563
351.45235
403.85074
414.50994
394.81393
368.99572
362.04071
355.02784
337.9964
307.84292
284.02589
302.40578
290.81977
252.2127
204.69027
172.86272
157.86688
151.92111
140.0522
138.08509
125.59783
122.33971
112.89712
107.84057
102.48534
94.471308
90.893614
85.73326
78.921897
75.035472
71.50922
69.815163
65.771911
62.405579
58.804714
56.912847
54.204307
51.707521
49.531831
48.101705
46.423029
43.824866
43.200423
42.358008
41.754637
42.476105
44.057861
49.916272
62.627621
63.798805
35.407086
28.993396
24.761486
24.025068
23.423083
23.390952
23.092229
23.311408
23.467333
23.659866
23.768566
23.70924
23.601892
23.856319
24.06385
24.058986
24.160116
23.821522
368.54451
321.70976
289.97141
264.00864
261.59665
271.37944
297.42141
347.50581
413.14186
466.27679
556.83037
648.93812
756.21702
827.86146
870.40156
909.67587
927.78155
946.12788
961.8031
1003.4447
1013.6246
1026.4457
1028.6369
1026.488
957.294
824.71984
671.92264
543.71547
436.36052
368.1934
322.82845
279.02319
286.97304
318.59892
381.61587
394.84462
374.43263
350.18883
336.96789
334.21789
320.40277
306.02216
309.63694
332.41294
281.84464
217.06237
180.8838
167.17572
156.63576
148.65267
141.87239
134.483
126.02561
119.58953
113.23271
108.68938
98.232428
94.388725
87.486011
82.842338
79.306283
75.876722
69.586921
67.306123
64.143364
61.900295
58.399447
56.767541
54.636893
52.648897
50.12225
48.238059
46.510793
45.125245
43.304926
42.161573
42.077705
42.474523
40.584225
42.515132
59.430006
81.435758
49.988567
30.688741
26.047027
24.577838
23.840648
23.809745
23.747381
23.663841
23.918588
24.034733
24.109308
24.162444
24.214356
24.185264
24.241272
24.237814
24.100605
23.79782
367.43711
324.76519
289.40649
267.15165
274.70072
301.20628
358.42975
436.26558
540.90988
649.0471
781.4199
852.43819
890.28817
884.92641
887.34976
893.45121
893.62905
890.14104
886.53553
922.46541
951.13339
986.95195
992.5844
1011.5496
978.87659
927.96058
843.94432
733.37198
629.16348
524.29981
436.36301
360.20147
316.48108
320.07259
358.31399
370.73053
351.07209
334.88422
322.99968
316.84357
310.9937
301.54668
290.79222
269.85848
226.05131
196.70373
177.32954
166.28823
156.46845
148.66786
142.41166
131.97584
122.0363
119.3758
113.27292
104.19972
99.901879
93.715568
86.803594
83.171601
80.201621
76.534135
70.093465
68.249006
65.326048
62.110709
59.152721
56.440222
54.294318
52.343285
49.69572
47.913653
45.232187
43.812161
42.979696
41.875803
41.781552
39.661513
41.256781
43.169795
45.904828
84.606887
86.720775
51.697466
33.671654
27.220452
24.649479
24.326001
24.11137
24.049244
24.173604
24.264943
24.414943
24.53429
24.495768
24.477651
24.595738
24.58323
24.370674
23.970175
365.6916
327.35032
284.64557
279.07223
300.36832
356.81891
456.7895
584.44816
751.78181
866.37132
884.00759
879.04079
876.73415
890.62213
881.50529
842.87381
804.29565
711.39459
637.36561
584.941
568.17056
593.04394
617.54267
727.4764
695.87622
705.63686
658.79616
608.71157
558.12485
493.91921
441.44619
385.58513
352.80982
336.5874
346.40862
342.758
328.18797
312.85434
301.68243
286.36625
273.08586
257.82471
244.42547
226.1935
202.9957
183.09873
169.80369
161.78467
154.08408
145.20091
137.8659
130.35764
126.04161
117.11393
109.25765
103.88997
98.186381
92.230226
87.705658
83.275865
80.099324
73.424475
71.002778
68.505299
64.608226
61.503326
57.989071
56.477385
54.2008
52.28863
49.792865
48.102189
46.098362
44.697076
42.430334
41.22324
40.171945
40.532115
42.29701
42.147109
41.761429
48.856455
67.559189
98.620072
76.503413
36.753106
26.702943
25.252764
24.621545
24.583035
24.735075
24.805097
24.900621
25.004508
25.117735
25.106033
25.09043
25.078265
24.965379
24.503535
367.94553
326.15899
284.07235
293.29014
347.61705
458.64977
618.46019
812.63003
889.18148
887.44368
892.52524
876.44371
872.42189
826.64265
758.39105
672.28174
608.84057
559.98749
517.45126
479.62743
432.20955
420.43022
416.63179
395.79774
432.68297
431.05778
497.89596
469.13855
448.74903
432.10404
397.65
365.37885
338.829
317.11312
310.20384
304.43707
295.87703
282.42088
268.78326
256.49812
244.05463
230.11488
218.2073
204.79309
189.82387
179.9213
168.77344
163.87185
152.82602
147.56116
138.01942
131.25022
123.39199
115.63228
109.36088
104.04746
98.926566
94.038085
88.541618
83.769226
79.965337
74.301906
69.840667
66.357867
63.045699
60.891774
58.946708
55.517627
53.717433
51.018046
49.369454
47.852899
45.497562
44.02927
42.965204
41.909709
40.942833
40.624453
40.285498
41.633679
41.831077
44.406504
44.850403
58.219797
74.354319
85.593148
32.182128
27.421119
25.578029
24.900093
25.031154
25.136058
25.241815
25.344615
25.419002
25.546017
25.55776
25.57086
25.439283
24.981668
371.83033
319.20412
291.8746
325.05058
446.43914
630.24218
846.05042
898.29445
881.78231
895.62164
878.67252
849.38233
778.78519
702.8428
641.45433
601.95281
564.78879
539.34703
513.36906
487.39225
476.61806
457.34883
420.98407
389.7007
357.65029
335.36543
345.74183
351.98929
354.93693
362.01674
340.64171
320.56395
307.73269
309.1694
296.19668
281.64633
270.10213
260.09068
248.55294
236.80571
226.17041
213.66869
203.95282
193.87906
185.56139
177.65789
168.26493
162.70422
157.06895
149.73814
139.59288
132.27323
124.96324
116.6075
110.23225
104.02149
98.697888
91.978057
87.259694
81.434214
77.246432
72.552206
69.789643
66.816087
64.279604
61.569272
58.386999
55.473061
53.765865
51.699
49.104389
47.360241
46.030282
44.725645
43.508813
42.395867
41.361364
41.235033
41.169968
40.812045
40.849946
42.263928
41.115953
48.693886
66.950751
68.688475
52.923655
30.592965
26.321649
25.663347
25.438245
25.516305
25.600907
25.661635
25.734816
25.841076
25.863978
25.893886
25.780844
25.279649
378.45868
307.88723
306.98868
395.8886
612.26615
830.35851
889.45729
878.82722
854.66314
868.2174
843.31166
738.40081
655.75763
626.60496
586.60141
556.62172
524.31068
505.03264
492.0977
478.36086
477.78696
483.34973
493.9276
461.76478
396.65638
352.78746
329.66386
308.9366
295.7234
295.30783
288.74146
292.48054
293.60823
287.38706
279.46578
270.38476
257.14777
246.17927
239.03197
227.89621
217.91649
207.66148
199.32836
192.28301
185.60109
180.7891
173.34256
167.91952
159.20602
148.85231
140.60067
130.70881
124.33735
117.12596
110.33162
103.82479
98.102669
91.728221
85.586359
80.51478
76.610227
73.748143
69.503238
67.108
64.113311
60.17541
58.392736
55.900108
53.849962
51.213239
49.493656
47.958195
46.514112
45.187571
43.987932
42.895445
41.9443
41.838757
41.426777
41.273218
42.112673
42.061435
40.903009
47.420457
62.977735
63.979481
55.725131
31.781187
29.033012
26.528331
25.85537
25.88702
25.958954
26.041855
26.111564
26.288883
26.386037
26.554019
26.470497
25.938718
376.03762
309.66475
338.22027
539.12885
787.42842
884.30019
867.89947
854.79308
830.80117
820.27142
703.95525
620.64098
581.84613
540.21922
499.89884
470.60498
452.8876
436.23185
420.12289
417.85699
398.09888
407.33713
428.79752
459.5293
467.79408
437.32373
368.19881
321.79717
298.58543
285.07156
277.00683
269.88407
275.48848
275.62396
269.48546
261.72919
251.61548
241.95486
233.73559
223.78175
215.66674
207.73316
205.2068
198.68875
192.69436
185.63148
177.27159
168.44293
158.795
148.0679
139.39663
133.1892
122.41022
114.82192
107.3412
100.65449
94.866481
89.336261
84.464324
79.957755
75.75979
72.728819
69.556295
66.836468
63.179046
60.658454
58.346889
55.565993
53.41864
51.550743
49.861812
48.327506
46.932018
45.648793
44.497962
43.345945
43.418098
42.387828
43.440615
42.369619
42.984375
42.747329
41.057211
51.905794
66.858735
65.465738
44.055909
34.128436
29.820986
26.969121
26.487084
26.164074
26.381714
26.379696
26.427531
26.68843
26.819862
27.084194
27.22894
26.596806
370.30969
317.08623
415.82191
696.94391
844.99651
871.7655
852.85176
839.77792
795.7225
657.80695
579.43253
519.16018
465.76885
423.37631
405.06886
391.49992
383.37302
379.46925
377.22192
376.61611
373.99452
371.07779
370.79879
393.95042
419.72416
446.8557
426.06273
374.91375
321.83033
292.89845
279.54948
270.11762
267.76069
270.62769
266.37792
260.47721
250.56112
241.11145
236.41305
229.34259
224.06163
216.54656
208.34986
206.26714
198.08218
190.36882
182.07517
173.81559
160.13698
151.28972
142.14377
131.15246
121.82515
113.61746
106.77356
100.13038
94.128763
88.134012
83.578711
79.08425
75.060197
71.931968
68.698136
66.336267
63.819086
61.382838
59.012558
56.810655
54.663342
52.281387
50.428541
48.857855
47.474337
46.235904
44.917533
44.801979
44.56426
43.323458
43.507091
42.904099
43.942985
43.931721
43.089362
52.889293
71.222913
63.009343
50.383896
33.239325
32.609769
28.191581
27.449842
26.469385
26.736335
26.870469
26.923859
27.031416
27.147755
27.399094
27.65632
27.042687
351.01357
349.4596
532.06122
765.71025
833.15249
837.67657
856.26174
799.35186
645.33621
545.54792
465.53609
417.00691
392.22152
379.29792
368.54745
363.62469
359.68135
362.10087
361.1098
365.20292
368.3672
368.46425
371.03716
374.25442
380.82887
400.04057
426.04844
404.45641
365.48114
322.13624
295.18932
281.26789
274.98465
273.56482
271.75486
271.24285
263.45287
250.03255
244.28364
237.64658
230.64222
223.76727
213.33127
205.51685
202.1776
192.12467
180.87446
171.58104
162.20663
149.94448
140.07849
130.17908
121.24952
113.49543
106.23659
99.571157
93.407956
87.869389
82.870747
78.472882
74.585588
71.066684
68.401512
65.871179
63.400648
61.097485
58.6387
56.629585
54.1169
52.297605
50.705331
49.232225
47.923268
46.732837
45.535946
45.433811
45.176676
44.046028
44.394374
43.837627
44.544918
44.094979
43.145683
50.961924
72.584095
57.327784
43.690895
35.599711
34.318315
29.053652
28.511502
26.863872
27.091182
27.171055
27.305931
27.393406
27.605761
27.847073
28.332259
27.637344
351.90668
378.69614
613.10071
767.76903
825.08941
847.10591
800.19737
652.71632
515.92549
445.78244
410.3387
390.20508
376.59937
359.48031
352.10132
346.77615
349.3638
348.82566
348.50322
347.85927
355.12983
365.12564
375.55952
382.09711
384.22838
391.19629
397.75684
409.51539
384.9451
347.28743
316.70143
297.56116
287.57357
286.68936
284.65979
285.65726
282.6163
269.23088
261.67682
260.71794
244.3531
230.712
218.3239
208.46472
199.26424
190.40768
181.06388
170.97384
160.87646
149.1332
139.61867
129.91554
121.2827
113.20336
105.77109
98.992563
93.015712
87.458903
82.455616
78.051337
74.154266
70.540189
67.82419
65.670126
63.341122
61.102361
58.89501
56.906832
55.084189
53.350364
51.605939
49.831428
48.457677
47.030337
46.8807
46.626875
46.161963
46.173795
45.524549
45.093404
44.662357
44.474206
45.43099
59.294946
74.023812
55.053465
42.323704
38.128408
34.845656
29.528349
28.23892
27.584752
27.364744
27.708083
27.83958
27.993111
28.092081
28.260023
28.897516
28.346025
357.02173
418.34318
631.02539
776.78541
810.61393
801.65732
699.22752
527.93136
452.62308
426.95018
400.02877
378.28599
353.10157
339.4437
329.82545
329.69856
331.27335
331.52205
330.87944
339.83108
348.2492
357.0922
368.54175
383.57423
392.87391
390.5275
388.74224
389.15384
395.79808
363.40024
331.63613
308.82379
301.01933
297.79519
293.05461
294.107
298.01267
282.65048
264.16386
255.19516
262.16347
243.99837
225.8327
211.23131
202.07614
191.29774
180.15193
171.39303
160.61799
149.27164
138.74141
128.97345
120.63755
112.80417
105.26875
98.328823
92.251983
86.812732
82.025962
77.621771
73.806903
70.386979
67.322694
64.601343
62.284722
59.869805
58.15632
56.132918
54.593117
52.929236
51.397318
49.94433
48.986708
47.608134
47.610257
47.214792
46.967164
46.519754
46.390297
45.996034
45.950047
45.432565
45.664767
62.60236
74.069461
55.385696
44.332986
42.276285
35.953683
30.463403
28.946728
28.507255
27.976771
28.33635
28.539247
28.709038
29.051275
29.055301
29.457799
29.20152
366.86335
446.26561
658.82834
762.56866
759.65243
748.16613
594.80481
481.82124
440.76186
420.24401
376.92346
349.35598
332.64064
322.64683
314.81481
319.12829
324.93716
324.05704
326.76166
336.06132
343.28104
353.25663
362.64869
370.57765
385.63966
396.46934
388.84877
382.27634
391.01932
363.18938
341.52604
321.33171
305.45689
310.46688
310.08114
296.34178
298.60678
285.89997
273.10076
262.36461
257.08527
250.36079
236.61268
223.57913
208.4479
196.4369
184.85602
169.11371
158.87423
149.04747
137.79158
127.72483
119.53425
111.11254
104.16906
97.30743
91.10946
85.790521
80.914102
76.649029
72.987573
69.72763
66.861985
64.192131
61.926533
59.675594
58.135249
56.187288
54.620228
53.201229
51.777732
50.71847
49.02969
48.64022
48.290318
47.630548
47.520201
47.298475
46.701111
46.857568
46.768055
46.387753
51.710304
63.530748
70.67407
59.954389
46.406518
52.908681
37.579671
32.276621
31.593868
29.797077
28.481883
28.889483
29.229282
29.413255
29.681836
30.048053
30.345293
30.31492
370.72342
469.49564
644.22123
745.99467
733.93276
682.11959
530.76131
466.34278
435.66196
399.76727
352.20003
336.06066
325.80829
320.79686
309.67213
315.67153
321.12662
322.95422
331.51902
337.1233
345.01058
355.02247
362.75057
364.85709
370.72194
388.78832
389.03217
383.86731
386.15113
370.68852
345.69735
327.36082
314.32214
315.70681
316.15402
310.96265
297.76353
308.24194
279.99494
263.88825
254.75601
249.6855
235.69102
223.44862
206.62995
192.77903
182.71996
169.52175
156.63761
145.33475
135.16298
125.93902
118.77844
110.29844
103.52152
96.729861
90.483221
85.22871
80.337505
76.171916
72.531268
69.235126
66.42337
63.779189
61.556425
59.486547
57.657434
55.918041
54.291987
52.77706
51.559845
50.09965
49.443179
49.224483
48.493976
48.148209
48.093325
47.948458
47.50244
47.68608
47.729146
48.6176
59.984033
70.125156
67.528017
61.357978
52.253626
53.978813
40.020727
34.37192
33.962192
30.871466
29.815156
29.311812
30.001544
29.964318
30.203033
31.071392
31.938367
31.110274
383.23508
488.33126
634.52285
705.10337
711.8068
598.26639
508.26132
457.49028
415.99804
380.52121
341.94942
326.78972
316.39608
304.0255
300.43966
303.44406
305.25711
312.83817
322.1499
338.74658
343.01904
359.10913
365.56042
371.51431
374.39097
384.39128
391.54879
380.29141
373.45997
357.5743
345.00023
334.80195
325.34228
334.6413
323.26913
309.57553
316.11059
312.5845
286.35779
266.23815
263.59635
253.93886
236.22559
225.29011
204.00822
189.6406
179.05917
167.61454
155.21459
145.10447
135.2371
124.6259
116.24883
108.41819
101.08805
94.441238
88.516118
83.349354
78.86692
74.858234
71.641686
68.675218
65.977577
63.462187
61.213899
59.122926
57.354005
55.514853
54.1147
52.706192
51.458192
50.165489
49.790711
49.27578
48.922027
48.79031
48.630086
48.681395
48.013275
48.270532
48.40042
50.947468
60.79681
68.606866
63.074931
58.212477
49.387135
50.008517
47.551372
35.535613
36.864451
33.440454
31.629596
30.013918
30.889166
31.115882
31.228757
32.321292
33.267296
32.331362
384.35192
484.74837
630.00424
682.51794
664.69742
551.11522
490.4725
448.17628
412.58255
371.6206
330.13866
312.08046
301.89594
295.77981
293.05958
292.82929
294.01296
295.78083
301.84795
313.63801
325.57517
340.97099
355.17019
370.69573
377.90701
381.06796
375.66577
359.72106
353.90249
355.48721
342.6094
338.19499
326.0002
339.60742
344.36198
319.55167
320.55709
307.51007
290.24048
271.15081
266.23303
249.24046
242.34223
222.70019
211.31298
191.08522
179.71095
169.53456
155.41165
144.48808
134.24553
123.57619
115.91289
107.57862
100.03758
93.289524
87.290784
81.931619
77.571997
73.602864
70.375553
67.489579
64.945875
62.669215
60.477759
58.68271
56.927815
55.363209
53.711191
52.407009
51.083073
49.862501
49.576035
49.224174
48.765244
48.652793
48.578332
48.70668
48.76428
48.655674
50.546503
53.75934
63.909908
64.400078
57.464777
56.173074
46.982665
51.578554
51.093727
39.080753
39.467371
36.11228
33.711499
31.599039
32.089911
32.815273
33.381148
32.502164
35.119404
33.67861
387.31259
483.37482
605.64009
648.43428
610.89299
514.61753
474.46961
450.14
416.51731
372.56601
329.56687
312.12668
302.70878
297.01224
293.8125
292.08385
292.48953
293.30859
294.03241
296.00076
301.53604
309.7143
319.7635
329.73326
339.2763
344.8741
345.0092
345.43162
346.72941
349.9741
350.93901
340.21753
331.1789
342.10634
347.1503
317.96052
313.68291
323.50813
311.16216
280.8643
272.99836
246.99694
242.47934
226.13976
205.2546
197.43071
177.34924
168.72711
155.14731
145.69109
133.41018
123.03459
114.11104
106.0497
99.170803
91.835723
86.282198
81.145609
76.701694
72.800556
69.598463
66.601405
64.147359
61.983935
59.901472
58.149318
56.231777
54.795481
53.34515
51.869027
51.031192
49.426255
48.640229
48.53764
48.252204
48.230812
48.554121
48.541266
48.560985
48.985264
51.409078
57.640524
64.313781
59.604751
53.015404
52.653479
46.430164
48.364283
48.205423
42.77142
38.967336
38.471862
36.231147
33.458664
31.919886
34.606194
34.72211
34.47531
36.200569
35.007748
386.90577
473.3631
582.48141
606.05456
560.68561
486.40561
465.28524
465.09173
431.88067
378.44004
336.38711
316.91384
306.86553
301.09166
296.38959
293.77255
290.91893
288.0544
289.55043
290.35952
294.47155
299.51804
306.35615
311.4062
318.47992
323.86683
330.23683
336.74604
340.60078
343.30785
347.52641
350.0824
354.32539
356.16978
350.85402
342.78185
333.06383
325.60978
316.27123
288.74651
274.61165
259.0439
244.50243
225.53516
212.24312
192.71907
180.89678
167.03404
157.04019
143.79504
134.12377
124.32316
114.41616
106.29039
98.345712
91.226838
84.739549
79.566338
75.133134
71.660375
68.698824
65.820308
63.449399
61.131613
59.248823
57.555815
55.845123
54.337702
52.7621
51.762906
50.450515
49.210239
49.158209
48.609981
48.533146
48.272541
48.196551
48.539375
48.747523
50.988132
53.297111
57.969946
64.691747
54.026428
47.415924
47.984652
44.421285
44.912877
45.395256
43.913825
43.658801
65.585011
37.888281
33.588431
33.119567
35.124999
34.864126
35.258938
36.526851
36.065605
381.11768
460.40054
550.97629
562.93709
519.99789
471.83995
467.17747
469.50716
441.24374
399.57009
353.33307
329.15633
317.19428
309.72528
303.31589
296.80544
290.30923
285.03504
282.15177
281.6543
290.55036
293.99918
300.1385
304.31168
311.43225
316.834
323.77531
330.17767
334.11262
337.29058
341.94713
349.8718
356.61694
344.85094
338.08306
331.47083
331.27296
334.69136
323.73512
315.36756
271.65455
256.54687
244.59735
229.89399
211.13197
198.32615
179.80541
166.75264
156.91527
143.02869
133.14994
122.66452
112.82315
104.70734
97.072275
90.719031
83.965732
78.448085
73.784986
70.222993
67.313003
64.677438
62.437901
60.600077
58.67303
57.108799
55.446113
54.003866
52.515128
51.251992
50.146436
49.433117
48.929426
48.111662
48.377597
48.069222
48.010251
48.420257
49.832475
51.644769
54.169074
58.084178
59.216102
54.140699
49.175833
44.9622
44.845963
43.504128
43.941591
41.738292
42.883263
47.061598
38.261204
35.363773
35.928536
34.950399
36.009402
35.568799
36.1725
36.078974
375.86964
447.45973
513.28381
520.79083
489.81032
464.23634
467.87512
476.68761
455.96326
416.30417
375.7822
347.53172
332.63968
321.59219
312.25541
303.4412
293.94385
284.98507
280.08995
278.6622
284.93629
288.08246
293.27457
296.12637
301.9523
307.01688
312.00289
318.06351
323.51387
326.85258
326.24984
336.31835
331.90211
322.42984
314.25409
315.58936
318.66985
315.53603
322.6988
316.198
304.85374
273.98153
259.83038
233.8571
216.39204
198.37452