/*--------------------------------*- C++ -*----------------------------------*\
| =========                 |                                                 |
| \\      /  F ield         | OpenFOAM: The Open Source CFD Toolbox           |
|  \\    /   O peration     | Version:  2406                                  |
|   \\  /    A nd           | Website:  www.openfoam.com                      |
|    \\/     M anipulation  |                                                 |
\*---------------------------------------------------------------------------*/
FoamFile
{
    version     2.0;
    format      ascii;
    arch        "LSB;label=32;scalar=64";
    class       volScalarField;
    location    "100";
    object      p;
}
// * * * * * * * * * * * * * * * * * * * * * * * * * * * * * * * * * * * * * //

dimensions      [0 2 -2 0 0 0 0];

internalField   nonuniform List<scalar> 
16045
(
-6927.4053
-6940.025
-6964.8064
-7002.2918
-7053.2854
-7119.2406
-7201.867
-7303.8635
-7429.1936
-7582.4958
-7767.0149
-7983.2574
-8228.1998
-8495.9237
-8778.1417
-9065.1468
-9346.2411
-9610.4659
-9847.1814
-10046.695
-10200.572
-10302.159
-10346.057
-10328.327
-10243.524
-10095.013
-9906.1927
-9791.926
-9740.0332
-9688.6744
-9792.2053
-10180.202
-10639.153
-11045.741
-11344.331
-11562.019
-11717.497
-11834.819
-11951.376
-12070.316
-12164.08
-12211.338
-12183.183
-12045.318
-11776.062
-11368.919
-10833.798
-10192.849
-9476.1468
-8715.4831
-7941.3713
-7179.1694
-6448.668
-5762.8321
-5129.7592
-4552.8422
-4032.7134
-3567.2755
-3153.2816
-2786.3245
-2462.1569
-2176.4198
-1925.0325
-1703.8303
-1509.2997
-1338.1246
-1187.5105
-1054.9605
-938.37818
-835.86677
-745.75796
-666.5944
-597.28151
-536.72976
-484.16741
-438.87956
-400.08679
-367.29869
-340.00261
-317.66705
-299.85057
-285.72402
-274.61267
-265.70401
-257.97446
-250.97858
-244.10102
-237.06077
-229.58281
-220.94519
-211.35514
-200.74428
-189.58247
-179.07816
-169.78335
-161.55203
-154.15874
-139.73121
-110.10665
-48.102756
-6916.125
-6924.9169
-6945.853
-6979.8281
-7027.4181
-7089.8487
-7169.0243
-7267.7094
-7390.2271
-7541.3639
-7724.8193
-7941.3706
-8188.6
-8460.9341
-8750.4467
-9047.2654
-9340.3755
-9618.0562
-9869.0321
-10082.875
-10251.037
-10367.06
-10427.069
-10430.357
-10380.225
-10289.266
-10172.407
-10081.268
-10039.67
-10022.976
-10111.519
-10397.445
-10793.196
-11123.623
-11369.179
-11566.684
-11700.57
-11796.88
-11927.718
-12079.593
-12190.791
-12254.858
-12243.252
-12113.398
-11842.694
-11426.104
-10875.897
-10217.759
-9483.9459
-8708.6037
-7922.7645
-7152.5742
-6417.053
-5729.0556
-5095.6504
-4520.0197
-4001.8989
-3539.0839
-3127.7028
-2763.4907
-2441.9038
-2158.6726
-1909.4267
-1690.1798
-1497.2749
-1327.5596
-1178.1918
-1046.7431
-931.01626
-829.1889
-739.60094
-660.91787
-591.95479
-531.70671
-479.35466
-434.14004
-395.40593
-362.67029
-335.41342
-313.19821
-295.54605
-281.74369
-271.00123
-262.33805
-254.89933
-248.12747
-241.51229
-234.66166
-227.12045
-218.42722
-208.45953
-196.93717
-184.22361
-171.44063
-159.1567
-149.30379
-140.52481
-126.7988
-96.612414
-38.056564
-6895.3674
-6902.9618
-6922.8984
-6956.4983
-7004.1782
-7067.2233
-7147.5854
-7248.2599
-7373.6501
-7528.7852
-7717.404
-7940.5122
-8195.7948
-8477.8859
-8778.7339
-9088.1796
-9394.5607
-9685.6551
-9949.5855
-10175.8
-10355.856
-10484.274
-10559.007
-10582.901
-10564.703
-10517.444
-10456.105
-10406.167
-10392.49
-10415.389
-10491.568
-10678.125
-10965.575
-11237.423
-11459.074
-11627.551
-11715.018
-11791.76
-11921.415
-12079.195
-12206.873
-12316.411
-12352.391
-12251.823
-11992.867
-11571.42
-11004.153
-10321.775
-9561.7073
-8761.6115
-7955.0009
-7168.4366
-6421.0832
-5725.048
-5086.942
-4508.8197
-3989.7462
-3526.771
-3115.9341
-2752.6231
-2432.224
-2150.1007
-1901.8597
-1683.4665
-1491.3601
-1322.3101
-1173.5297
-1042.5174
-927.11726
-825.4744
-736.01307
-657.36601
-588.37107
-528.02339
-475.49304
-430.03983
-391.07028
-358.09009
-330.63155
-308.33575
-290.80915
-277.38677
-267.16112
-259.05113
-252.09291
-245.66879
-239.246
-232.45374
-224.99577
-216.52745
-206.83033
-195.52351
-182.74857
-168.69989
-153.78733
-139.94385
-126.5207
-110.50286
-80.99039
-28.286881
-6866.3055
-6873.5197
-6892.8694
-6926.0633
-6973.8182
-7037.5382
-7119.3344
-7222.3867
-7351.4653
-7511.9042
-7707.7846
-7940.399
-8207.7574
-8504.5521
-8822.474
-9150.6221
-9476.4395
-9786.7812
-10069.037
-10312.163
-10507.893
-10651.387
-10742.314
-10785.331
-10789.957
-10767.907
-10733.273
-10705.072
-10707.544
-10741.652
-10833.123
-11004.783
-11205.865
-11382.464
-11551.64
-11695.581
-11782.578
-11867.358
-11994.33
-12126.299
-12271.985
-12428.383
-12507.738
-12446.72
-12206.486
-11779.771
-11189.358
-10473.604
-9677.0915
-8843.0374
-8007.7786
-7198.7318
-6434.6218
-5726.9471
-5081.3042
-4498.7291
-3977.2951
-3513.4724
-3102.6894
-2739.9803
-2420.4138
-2139.2553
-1892.0088
-1674.6047
-1483.3617
-1315.0648
-1166.8966
-1036.3929
-921.38971
-820.05181
-730.79202
-652.25707
-583.27535
-522.85576
-470.15414
-424.46025
-385.19409
-351.88863
-324.1518
-301.72526
-284.3486
-271.47272
-262.07254
-254.83905
-248.68985
-242.899
-236.90743
-230.3287
-222.85996
-214.26573
-204.45871
-193.25111
-180.62907
-166.54704
-151.11678
-134.72946
-117.56386
-98.065015
-69.245037
-22.195126
-6829.4552
-6836.5326
-6855.8737
-6889.54
-6938.5498
-7004.4769
-7089.5567
-7197.3201
-7332.9813
-7502.3851
-7710.1128
-7957.9667
-8244.1939
-8563.2738
-8905.9859
-9260.2237
-9611.9393
-9946.7878
-10251.056
-10513.218
-10725.073
-10882.65
-10987.084
-11044.67
-11065.77
-11060.827
-11042.281
-11026.361
-11035.656
-11071.188
-11170.263
-11316.742
-11428.525
-11542.424
-11683.749
-11779.692
-11842.632
-11919.839
-12048.936
-12219.751
-12434.856
-12632.69
-12737.636
-12707.487
-12483.191
-12048.762
-11428.814
-10670.896
-9828.785
-8952.2533
-8081.0136
-7243.633
-6458.4831
-5735.9671
-5080.3674
-4491.543
-3966.5244
-3500.8509
-3089.3172
-2726.6408
-2407.6124
-2127.244
-1880.8769
-1664.3313
-1473.9113
-1306.3778
-1158.8838
-1028.9607
-914.45857
-813.52413
-724.57293
-646.24953
-577.3827
-516.96872
-464.17119
-418.27785
-378.71688
-345.04712
-316.95369
-294.29824
-277.03971
-264.80198
-256.4458
-250.37981
-245.28699
-240.31798
-234.94825
-228.83003
-221.62639
-213.10031
-203.14217
-191.69168
-178.86247
-164.70228
-149.2711
-132.59427
-114.39437
-93.333025
-65.477376
-23.278728
-6784.73
-6791.9027
-6811.6822
-6846.3824
-6897.311
-6966.2799
-7055.8503
-7170.0495
-7314.7735
-7496.7804
-7721.7074
-7992.0522
-8306.0129
-8657.0642
-9034.3345
-9423.6257
-9809.011
-10174.471
-10505.033
-10788.627
-11017.088
-11187.223
-11301.855
-11369.225
-11401.243
-11409.043
-11404.456
-11399.002
-11409.096
-11437.627
-11510.882
-11601.383
-11665.404
-11759.017
-11847.561
-11886.374
-11935.962
-11992.92
-12106.874
-12302.753
-12569.735
-12849.083
-13034.301
-13037.587
-12814.779
-12353.199
-11694.469
-10885.445
-9989.9986
-9064.7901
-8152.7874
-7283.5737
-6475.36
-5737.2391
-5071.6004
-4476.5362
-3948.022
-3480.7919
-3069.042
-2706.9731
-2389.0151
-2109.9073
-1864.8631
-1649.6306
-1460.4696
-1294.0959
-1147.6516
-1018.6609
-904.98456
-804.76457
-716.41059
-638.57212
-570.07236
-509.90157
-457.21568
-411.30319
-371.57957
-337.61644
-309.15938
-286.20299
-268.96755
-257.37211
-250.23918
-245.59733
-241.80003
-237.8554
-233.24238
-227.66397
-220.82384
-212.50818
-202.59244
-191.02571
-177.90956
-163.38531
-147.64259
-130.7687
-112.54858
-91.605005
-65.013065
-26.122099
-6732.2465
-6739.4653
-6759.9356
-6796.138
-6849.6828
-6922.7248
-7018.3279
-7141.2374
-7298.5563
-7498.7685
-7749.1011
-8052.4143
-8405.8448
-8800.8277
-9223.9324
-9658.3183
-10085.6
-10487.707
-10848.636
-11155.632
-11400.625
-11581.347
-11702.487
-11774.993
-11811.482
-11824.215
-11825.334
-11824.17
-11832.849
-11851.685
-11884.016
-11918.251
-11950.722
-12003.677
-12018.216
-12025.645
-12079.594
-12133.942
-12229.735
-12425.743
-12725.162
-13079.589
-13346.056
-13396.663
-13164.691
-12652.239
-11943.304
-11075.432
-10122.095
-9146.3016
-8193.501
-7293.994
-6465.1505
-5714.1194
-5041.1579
-4442.5941
-3913.1238
-3446.5985
-3036.5586
-2676.7161
-2361.176
-2084.5147
-1841.858
-1628.8657
-1441.7467
-1277.2174
-1132.4296
-1004.9179
-892.5526
-793.48099
-706.11936
-629.11868
-561.31155
-501.69221
-449.40959
-403.74205
-364.08959
-330.00977
-301.2705
-277.95735
-260.59098
-249.55713
-243.76135
-240.7414
-238.42775
-235.69808
-231.99105
-227.06402
-220.67758
-212.62258
-202.79846
-191.19002
-177.90562
-163.11991
-147.05916
-129.89555
-111.58189
-91.008803
-65.597533
-28.192115
-6671.437
-6678.9731
-6700.387
-6738.4703
-6795.1545
-6873.1235
-6976.2299
-7110.517
-7285.2473
-7511.4863
-7797.9301
-8146.9365
-8553.6034
-9006.4554
-9488.6525
-9979.8841
-10458.519
-10903.763
-11298.382
-11629.65
-11890.259
-12079.234
-12203.491
-12276.662
-12311.569
-12321.109
-12317.559
-12309.55
-12306.727
-12310.661
-12313.653
-12304.516
-12284.04
-12274.799
-12256.845
-12273.913
-12339.997
-12376.327
-12459.737
-12671.295
-13019.099
-13402.488
-13694.762
-13751.073
-13468.239
-12888.616
-12122.253
-11194.753
-10184.483
-9162.2365
-8175.6941
-7253.3643
-6410.5436
-5652.4685
-4977.5741
-4380.6209
-3854.6479
-3392.4911
-2987.2193
-2632.1868
-2321.2439
-2048.8498
-1810.0771
-1600.5941
-1416.6281
-1254.9108
-1112.6084
-987.27881
-876.81915
-779.41828
-693.52452
-617.7958
-551.06444
-492.33611
-440.78177
-395.67876
-356.40528
-322.48892
-293.6633
-270.03516
-252.3958
-241.73998
-237.26068
-235.96591
-235.24536
-233.88887
-231.23473
-227.04996
-221.19669
-213.47888
-203.7984
-192.16123
-178.70358
-163.66546
-147.33046
-129.93577
-111.50022
-91.064637
-66.270804
-29.364963
-6602.5797
-6610.2777
-6632.729
-6672.8924
-6733.085
-6816.795
-6929.2707
-7078.8143
-7277.8753
-7540.6002
-7876.989
-8288.9394
-8769.3706
-9302.4811
-9865.1527
-10430.429
-10971.582
-11465.185
-11893.394
-12244.724
-12514.326
-12703.155
-12821.788
-12886.141
-12910.245
-12908.144
-12891.59
-12867.638
-12842.445
-12820.569
-12797.715
-12760.652
-12697.093
-12631.791
-12585.054
-12596.728
-12664.202
-12725.119
-12840.664
-13089.705
-13436.049
-13805.953
-14038.401
-14026.885
-13630.71
-12999.231
-12188.239
-11209.791
-10154.503
-9097.0879
-8086.4799
-7150.9619
-6303.4033
-5546.3742
-4876.2847
-4286.4019
-3768.7728
-3315.4053
-2918.7363
-2571.7512
-2268.124
-2002.2556
-1769.2453
-1564.8222
-1385.2859
-1227.4337
-1088.4984
-966.09534
-858.17728
-762.98132
-678.98975
-604.88955
-539.55645
-482.04089
-431.53482
-387.31683
-348.75331
-315.34316
-286.75253
-263.01419
-245.02443
-234.42486
-231.06425
-231.5427
-232.42045
-232.45608
-230.99145
-227.68913
-222.46923
-215.15389
-205.64926
-193.98941
-180.34183
-164.99714
-148.30796
-130.6007
-111.9953
-91.654359
-67.138488
-30.396658
-6525.0489
-6533.0617
-6556.5838
-6598.8889
-6662.7953
-6753.1174
-6877.5595
-7047.8023
-7280.819
-7595.2786
-8004.3445
-8509.4311
-9097.9425
-9743.4587
-10410.74
-11063.581
-11670.657
-12208.72
-12663.134
-13027.275
-13300.338
-13486.037
-13596.574
-13644.568
-13645.477
-13616.816
-13572.17
-13518.498
-13459.607
-13400.239
-13341.232
-13275.161
-13188.801
-13093.858
-13016.419
-13009.361
-13071.196
-13152.991
-13296.637
-13552.063
-13869.632
-14152.606
-14266.798
-14144.476
-13666.292
-13002.355
-12145.881
-11117.032
-10021.628
-8939.0711
-7917.0781
-6980.6522
-6139.2643
-5392.742
-4735.5131
-4159.4934
-3655.8264
-3215.8833
-2831.6742
-2495.9809
-2202.3903
-1945.3171
-1719.9391
-1522.1065
-1348.2482
-1195.2863
-1060.5642
-941.79404
-837.0089
-744.51573
-662.85643
-590.77233
-527.18615
-471.18767
-421.99425
-378.91102
-341.3471
-308.80791
-280.88788
-257.44269
-239.23943
-228.35358
-225.59203
-227.6936
-230.18039
-231.53887
-231.31341
-229.02444
-224.55069
-217.71822
-208.42924
-196.74295
-182.86391
-167.12953
-149.95365
-131.74926
-112.7884
-92.379096
-68.081176
-31.25965
-6439.0122
-6446.8327
-6471.3691
-6515.7471
-6583.5311
-6681.8201
-6822.2044
-7021.5122
-7304.3717
-7698.1382
-8219.3618
-8861.7714
-9594.6408
-10371.886
-11145.749
-11876.472
-12534.946
-13101.663
-13565.504
-13923.795
-14182.63
-14355.779
-14457.687
-14496.593
-14486.899
-14441.009
-14368.342
-14277.048
-14174.434
-14066.506
-13957.703
-13849.757
-13740.34
-13635.492
-13542.299
-13503.066
-13538.874
-13620.083
-13762.957
-13969.671
-14196.35
-14376.07
-14375.44
-14123.434
-13593.874
-12895.44
-11972.248
-10894.436
-9771.5992
-8680.1929
-7663.2694
-6740.8333
-5918.3767
-5192.9929
-4557.3385
-4002.2373
-3518.2008
-3096.224
-2728.1497
-2406.7457
-2125.6724
-1879.452
-1663.4088
-1473.5619
-1306.5191
-1159.3728
-1029.6211
-915.10673
-813.97264
-724.61674
-645.66019
-575.91447
-514.36082
-460.13541
-412.50137
-370.81154
-334.50697
-303.12232
-276.28689
-253.73219
-235.80254
-224.43795
-221.42019
-224.51594
-228.55142
-231.20293
-232.25745
-231.11536
-227.52644
-221.27229
-212.23839
-200.50514
-186.3222
-170.08074
-152.25384
-133.32991
-113.69591
-92.878062
-68.453994
-31.554183
-6343.4186
-6351.5765
-6376.9812
-6423.2076
-6495.0003
-6603.4448
-6766.3696
-7009.3873
-7370.6353
-7886.9052
-8567.8941
-9386.0793
-10288.197
-11215.295
-12114.918
-12947.115
-13685.383
-14311.624
-14811.774
-15173.999
-15398.092
-15505.438
-15518.819
-15476.266
-15411.154
-15331.363
-15231.959
-15111.092
-14970.965
-14815.842
-14652.525
-14491.483
-14344.091
-14220.923
-14117.498
-14046.032
-14030.962
-14071.496
-14164.778
-14287.104
-14399.89
-14440.424
-14315.376
-13972.071
-13389.892
-12605.679
-11613.315
-10507.599
-9385.3384
-8311.8107
-7322.4939
-6432.2167
-5643.0918
-4950.1432
-4344.9112
-3817.6346
-3358.6326
-2958.8746
-2610.3135
-2305.8946
-2039.5259
-1805.963
-1600.7512
-1420.1298
-1260.9216
-1120.4252
-996.32474
-886.62468
-789.60215
-703.76825
-627.8394
-560.71186
-501.43773
-449.21076
-403.34996
-363.26763
-328.45525
-298.49348
-273.05533
-251.90655
-235.02418
-223.48007
-219.29826
-222.1566
-227.4477
-231.41398
-233.86593
-234.06471
-231.54628
-225.98129
-217.23674
-205.42155
-190.84185
-173.95162
-155.28935
-135.41009
-114.79869
-93.119486
-68.260362
-31.321029
-6239.2238
-6247.0764
-6273.0418
-6320.8017
-6397.0982
-6520.3185
-6718.3015
-7031.4627
-7514.253
-8204.0174
-9092.9702
-10131.444
-11249.989
-12385.138
-13495.379
-14554.187
-15532.75
-16392.304
-17088.423
-17580.537
-17843.455
-17869.694
-17693.627
-17407.744
-17081.428
-16751.724
-16440.729
-16159.524
-15905.034
-15665.116
-15430.223
-15202.398
-14995.78
-14825.869
-14687.83
-14574.096
-14494.277
-14454.343
-14450.35
-14457.233
-14429.878
-14310.644
-14041.9
-13584.588
-12927.003
-12065.869
-11045.683
-9953.6346
-8868.4119
-7842.6451
-6904.3657
-6064.2142
-5322.0844
-4671.9442
-4104.9813
-3611.4848
-3182.0484
-2807.9961
-2481.6611
-2196.3715
-1946.4091
-1726.8791
-1533.636
-1363.1898
-1212.6116
-1079.4257
-961.52212
-857.08448
-764.54296
-682.53735
-609.89326
-545.60149
-488.79636
-438.74021
-394.81396
-356.49514
-323.33851
-294.97916
-271.14535
-251.65991
-236.44116
-225.49959
-220.06657
-221.18417
-226.34929
-231.74686
-235.93047
-237.86845
-236.7145
-231.9919
-223.57264
-211.62096
-196.52347
-178.81636
-159.1131
-138.04165
-116.15718
-93.32271
-67.658111
-30.709257
-6125.5777
-6133.4283
-6159.7779
-6208.5605
-6291.122
-6438.8391
-6693.7416
-7116.1704
-7772.5831
-8693.15
-9848.2635
-11168.65
-12590.563
-14075.246
-15590.386
-17088.777
-18505.936
-19768.548
-20806.056
-21559.136
-21985.204
-22048.922
-21766.588
-21218.892
-20477.633
-19634.9
-18795.225
-18038.344
-17397.941
-16868.249
-16424.118
-16042.421
-15714.574
-15442.215
-15215.772
-15017.803
-14842.938
-14692.005
-14558.634
-14417.967
-14227.737
-13936.906
-13508.11
-12932.147
-12195.656
-11302.25
-10301.005
-9262.0343
-8245.8581
-7293.1793
-6425.5022
-5650.3289
-4966.3718
-4367.3844
-3844.8909
-3389.8037
-2993.3916
-2647.6516
-2345.5185
-2080.9023
-1848.556
-1644.042
-1463.5632
-1303.9571
-1162.5744
-1037.185
-925.89211
-827.06684
-739.29958
-661.36744
-592.2131
-530.92841
-476.73703
-428.97875
-387.10044
-350.64549
-319.23338
-292.55459
-270.37672
-252.54103
-238.90656
-229.34891
-223.80523
-223.26818
-226.74115
-232.69379
-238.59239
-242.73246
-243.28635
-239.56297
-231.48041
-219.3033
-203.53539
-184.81881
-163.85657
-141.34612
-117.94691
-93.694194
-67.129375
-30.049489
-6003.4102
-6009.8893
-6036.6881
-6085.8931
-6180.7238
-6370.9467
-6715.1737
-7295.65
-8184.2847
-9391.6214
-10866.578
-12550.382
-14396.067
-16351.426
-18349.11
-20310.093
-22151.671
-23795.217
-25171.559
-26227.949
-26917.644
-27212.082
-27073.23
-26472.94
-25444.24
-24111.685
-22648.396
-21216.299
-19927.037
-18831.024
-17928.239
-17191.677
-16590.092
-16097.993
-15688.142
-15330.497
-15004.54
-14699.523
-14403.32
-14092.628
-13733.221
-13288.231
-12730.31
-12058.759
-11274.914
-10389.498
-9441.8531
-8483.1108
-7557.3068
-6694.34
-5910.0751
-5209.5945
-4591.0292
-4048.4935
-3574.3352
-3160.4671
-2799.1025
-2483.1223
-2206.249
-1963.065
-1748.9134
-1559.8668
-1392.5279
-1244.0692
-1112.1413
-994.78034
-890.31242
-797.29414
-714.47479
-640.7665
-575.22927
-517.05643
-465.56338
-420.17027
-380.39361
-345.83838
-316.18413
-291.16815
-270.5791
-254.24701
-241.97125
-233.59632
-228.35705
-226.92184
-230.72743
-237.50868
-244.07124
-249.38034
-251.58835
-248.92403
-241.13029
-228.59098
-211.96212
-192.01684
-169.56117
-145.37501
-120.20555
-94.362817
-66.709376
-29.381625
-5871.2916
-5878.0831
-5904.387
-5954.509
-6075.4979
-6334.0274
-6807.5374
-7596.6639
-8759.3467
-10280.739
-12110.587
-14184.571
-16423.405
-18744.097
-21067.188
-23315.296
-25413.686
-27296.315
-28908.447
-30210.186
-31178.204
-31814.578
-32037.455
-31681.292
-30700.904
-29194.188
-27343.367
-25351.966
-23400.717
-21618.759
-20073.539
-18779.469
-17716.18
-16846.233
-16124.852
-15507.243
-14957.819
-14452.08
-13969.543
-13486.449
-12974.929
-12408.049
-11766.944
-11046.154
-10252.999
-9405.148
-8531.9036
-7667.3477
-6841.9508
-6076.2035
-5381.048
-4759.5455
-4209.5419
-3725.7518
-3301.5855
-2930.0739
-2604.5066
-2318.7641
-2067.4361
-1845.8303
-1649.9433
-1476.3729
-1322.1911
-1184.9015
-1062.4472
-953.13456
-855.52408
-768.3629
-690.55265
-621.13336
-559.27403
-504.26484
-455.50765
-412.50192
-374.83322
-342.16398
-314.22384
-290.78768
-271.65597
-256.62441
-245.40565
-237.76206
-232.67545
-230.99782
-235.66379
-245.78516
-254.48502
-260.04529
-262.54452
-260.52158
-252.78923
-239.65576
-221.91457
-200.48151
-176.28445
-150.19367
-123.03998
-95.290237
-66.327021
-28.585496
-5731.8956
-5738.1811
-5761.7324
-5819.931
-5990.4746
-6346.084
-6987.1621
-8010.4382
-9445.0203
-11260.382
-13381.63
-15708.799
-18151.334
-20638.72
-23107.218
-25490.59
-27722.505
-29744.653
-31509.404
-32977.997
-34138.107
-35010.199
-35537.73
-35547.719
-34913.496
-33630.328
-31798.77
-29590.297
-27208.24
-24845.909
-22652.103
-20715.884
-19067.515
-17691.378
-16544.58
-15575.37
-14736.883
-13992.058
-13310.64
-12664.581
-12026.812
-11373.649
-10688.477
-9963.3541
-9199.2471
-8412.0033
-7624.1023
-6858.2779
-6134.7532
-5466.3591
-4859.9633
-4316.9961
-3835.0707
-3409.5559
-3034.9286
-2705.2961
-2415.0614
-2159.0842
-1932.8322
-1732.3574
-1554.3135
-1395.8271
-1254.4459
-1128.0265
-1014.8121
-913.35301
-822.43583
-741.00574
-668.11825
-602.93284
-544.71741
-492.84699
-446.79975
-406.14731
-370.53903
-339.69074
-313.37197
-291.38744
-273.54105
-259.59947
-249.19348
-241.9734
-236.86637
-235.35171
-242.36195
-257.00935
-267.85725
-274.79582
-277.16687
-274.72721
-266.55854
-252.48069
-233.32509
-210.13625
-183.96391
-155.77597
-126.45574
-96.624873
-65.989017
-27.708707
-5585.0015
-5591.8922
-5610.7014
-5696.2301
-5941.7384
-6417.1541
-7238.085
-8472.8476
-10124.329
-12129.608
-14385.503
-16800.853
-19313.096
-21872.536
-24424.918
-26907.887
-29258.139
-31415.965
-33325.562
-34937.63
-36228.183
-37190.502
-37807.103
-38015.524
-37708.227
-36803.031
-35278.993
-33197.665
-30705.513
-28005.183
-25306.407
-22780.472
-20533.065
-18600.324
-16966.45
-15588.86
-14418.567
-13410.417
-12524.814
-11726.494
-10984.039
-10271.249
-9568.868
-8865.3177
-8155.8981
-7445.9786
-6749.57
-6082.2303
-5457.2589
-4881.9829
-4360.3469
-3892.5188
-3475.8686
-3106.3877
-2779.4934
-2490.2545
-2234.118
-2006.8583
-1804.7726
-1624.6541
-1463.762
-1319.7535
-1190.6218
-1074.5981
-970.21645
-876.27417
-791.7718
-715.83234
-647.66872
-586.56153
-531.8706
-483.04553
-439.62766
-401.24819
-367.61228
-338.48203
-313.66038
-292.97099
-276.22504
-263.16807
-253.38178
-246.29717
-240.97413
-240.39124
-251.12314
-270.03527
-283.16681
-292.47464
-295.27922
-291.98157
-282.48556
-267.03832
-246.16736
-220.95926
-192.58067
-162.10114
-130.47469
-98.39977
-65.94471
-26.924424
-5434.1481
-5435.2202
-5457.3035
-5599.1579
-5934.3631
-6532.3031
-7501.4715
-8885.5594
-10656.196
-12729.05
-15018.354
-17461.243
-20012.457
-22632.669
-25273.463
-27874.478
-30368.264
-32685.459
-34755.517
-36515.428
-37918.798
-38928.095
-39547.386
-39786.634
-39604.644
-38935.826
-37713.973
-35898.778
-33524.293
-30727.544
-27723.699
-24744.072
-21971.979
-19511.02
-17390.927
-15593.782
-14079.354
-12800.908
-11712.231
-10770.223
-9936.5025
-9178.8992
-8472.6672
-7800.6615
-7152.8205
-6525.7822
-5922.9766
-5352.227
-4820.708
-4332.8112
-3890.4745
-3493.0349
-3137.6636
-2821.0159
-2539.2028
-2288.1922
-2064.3918
-1864.3768
-1685.2271
-1524.4188
-1379.7725
-1249.4601
-1131.8907
-1025.664
-929.58544
-842.70261
-764.22889
-693.45949
-629.73817
-572.46113
-521.08583
-475.13045
-434.19159
-397.94642
-366.14585
-338.58894
-315.10586
-295.53095
-279.67888
-267.29025
-257.94059
-251.03582
-245.42874
-245.67419
-262.25297
-282.79993
-300.3143
-312.20975
-315.14649
-311.12076
-300.12294
-283.10978
-260.25429
-232.75154
-201.92544
-168.97554
-134.9227
-100.56266
-66.139229
-26.219871
-5283.1275
-5272.9688
-5318.1827
-5539.1176
-5952.5163
-6644.1565
-7707.4754
-9168.3732
-10979.381
-13067.819
-15367.871
-17828.126
-20414.413
-23097.844
-25832.051
-28552.523
-31182.896
-33645.629
-35859.359
-37752.535
-39255.277
-40324.696
-40974.72
-41226.844
-41064.412
-40462.826
-39390.032
-37783.495
-35589.784
-32843.711
-29708.225
-26431.151
-23254.568
-20347.589
-17792.681
-15605.953
-13764.561
-12226.668
-10943.405
-9865.5717
-8947.7317
-8150.9465
-7443.9572
-6803.373
-6212.9603
-5662.8831
-5148.455
-4669.2545
-4225.7136
-3819.7511
-3451.3579
-3119.5478
-2821.4072
-2554.2947
-2314.789
-2099.7833
-1906.4791
-1732.1805
-1574.6927
-1432.1133
-1302.7885
-1185.3712
-1078.6731
-981.63654
-893.33216
-813.04046
-740.17747
-674.22154
-614.64809
-560.94376
-512.6425
-469.33776
-430.67861
-396.38665
-366.24579
-340.08606
-317.75666
-299.09811
-283.91378
-271.9295
-262.77116
-256.22497
-251.41894
-253.2438
-275.05344
-295.78866
-319.68563
-332.94032
-336.04159
-331.86872
-319.74714
-300.60687
-275.39145
-245.31506
-211.8331
-176.26047
-139.68833
-102.96336
-66.462896
-25.522919
-5140.3305
-5112.3081
-5206.2589
-5497.5143
-5955.5142
-6701.233
-7815.8858
-9305.6712
-11130.355
-13222.565
-15520.488
-17984.783
-20596.902
-23335.34
-26150.659
-28970.178
-31706.222
-34274.136
-36589.166
-38580.465
-40166.896
-41310.126
-42012.596
-42291.23
-42139.163
-41550.186
-40527.212
-39033.341
-36985.597
-34338.343
-31180.002
-27737.574
-24282.989
-21036.225
-18128.033
-15610.647
-13482.839
-11712.408
-10251.839
-9048.6557
-8052.2149
-7217.6791
-6507.8617
-5893.3945
-5352.1705
-4868.3381
-4431.172
-4033.81
-3671.3063
-3341.4116
-3042.1327
-2771.4517
-2526.8518
-2306.0888
-2106.2642
-1925.1581
-1760.535
-1610.4394
-1473.3558
-1347.9189
-1232.9859
-1127.66
-1031.1434
-942.69008
-861.63082
-787.46323
-719.79943
-658.28432
-602.5353
-552.132
-506.67651
-465.80212
-429.20684
-396.65685
-367.96784
-342.99399
-321.6043
-303.63811
-288.88719
-277.11898
-268.08581
-261.97661
-259.10994
-264.41113
-290.41165
-312.98557
-340.29933
-354.69289
-358.4618
-354.71614
-341.262
-319.30078
-291.32598
-258.37937
-222.03743
-183.72603
-144.58219
-105.48372
-66.811887
-24.800629
-5011.0208
-4970.4161
-5120.9737
-5436.185
-5909.0942
-6690.6706
-7829.8761
-9329.7043
-11153.128
-13223.398
-15490.424
-17936.347
-20559.272
-23341.025
-26224.904
-29124.804
-31940.245
-34578.114
-36953.204
-39005.271
-40660.876
-41870.056
-42615.449
-42909.734
-42768.724
-42195.317
-41199.312
-39765.844
-37814.732
-35259.627
-32128.737
-28614.06
-24992.886
-21515.447
-18348.746
-15576.232
-13218.233
-11254.432
-9641.857
-8327.9706
-7259.6482
-6388.2383
-5672.0466
-5076.8399
-4575.3841
-4146.6292
-3774.6245
-3447.5396
-3156.5616
-2895.4441
-2659.8408
-2446.0463
-2251.6943
-2074.3899
-1912.0413
-1762.9388
-1625.3931
-1498.2041
-1380.4139
-1271.1536
-1169.7909
-1075.8493
-988.8957
-908.48656
-834.1997
-765.73941
-702.90701
-645.50542
-593.27715
-545.90549
-503.05915
-464.41083
-429.69221
-398.69673
-371.26656
-347.28096
-326.63521
-309.19002
-294.79466
-283.34938
-274.75803
-269.35375
-268.96473
-278.4341
-307.57545
-332.97438
-361.63891
-378.09886
-382.85838
-379.56301
-363.99217
-338.867
-307.81443
-271.75905
-232.3971
-191.25236
-149.48754
-107.99522
-67.12568
-24.126816
-4884.5996
-4841.1621
-5037.3006
-5329.6933
-5808.5766
-6622.4653
-7768.5264
-9257.8193
-11037.426
-13038.353
-15238.093
-17643.304
-20265.826
-23081.942
-26018.676
-28975.18
-31846.354
-34537.377
-36966.301
-39085.84
-40818.774
-42083.526
-42846.36
-43130.379
-42989.421
-42436.064
-41465.432
-40066.752
-38170.867
-35678.854
-32586.541
-29056.513
-25356.971
-21747.921
-18417.321
-15470.576
-12945.946
-10835.046
-9101.4209
-7695.5745
-6564.7424
-5658.9758
-4933.9397
-4351.9176
-3881.6955
-3497.8954
-3180.2262
-2912.7414
-2683.199
-2482.4691
-2303.8924
-2142.3581
-1994.6577
-1858.1276
-1731.1045
-1612.1346
-1500.2277
-1394.7387
-1295.1673
-1201.1801
-1112.6273
-1029.4139
-951.45024
-878.58887
-810.64609
-747.51881
-689.18606
-635.60614
-586.63721
-542.04677
-501.57083
-464.94491
-431.92768
-402.33798
-376.03748
-352.9377
-332.96968
-316.06717
-302.16903
-291.26827
-283.48818
-279.05219
-280.95144
-294.56052
-326.34652
-355.6514
-383.66465
-403.598
-409.14553
-405.58067
-387.18836
-358.86695
-324.49347
-285.1065
-242.61107
-198.62011
-154.28064
-110.42947
-67.318802
-23.371103
-4748.3085
-4723.4901
-4933.3815
-5179.417
-5676.1763
-6514.4591
-7641.521
-9069.2406
-10740.355
-12623.596
-14731.46
-17087.787
-19701.793
-22528.453
-25477.674
-28453.969
-31359.787
-34101.129
-36613.066
-38861.399
-40715.153
-42047.48
-42814.406
-43070.229
-42914.351
-42369.591
-41412.993
-40024.268
-38141.962
-35671.488
-32602.885
-29085.843
-25373.24
-21716.721
-18309.058
-15266.68
-12640.136
-10430.924
-8610.3924
-7134.1644
-5952.8825
-5017.5231
-4283.2447
-3710.2482
-3264.5645
-2917.4681
-2645.082
-2428.0558
-2251.1663
-2102.8467
-1974.5274
-1859.9743
-1754.8671
-1656.2369
-1562.2201
-1471.6452
-1383.9804
-1298.9693
-1216.6055
-1137.076
-1060.6439
-987.5664
-918.07967
-852.32399
-790.35516
-732.25144
-678.14756
-628.15275
-582.2364
-540.24558
-501.98669
-467.23288
-435.78544
-407.52048
-382.33377
-360.18635
-341.03427
-324.88959
-311.73972
-301.59366
-294.92189
-291.81
-296.3865
-315.9089
-348.62083
-381.24144
-407.98058
-429.73673
-435.98219
-431.2338
-409.99483
-378.57452
-340.926
-298.21501
-252.58331
-205.75017
-158.85668
-112.69979
-67.390431
-22.399869
-4595.0774
-4602.3887
-4781.2185
-4991.9261
-5532.1212
-6366.5766
-7420.7881
-8721.0505
-10239.236
-11989.611
-14006.851
-16319.763
-18913.17
-21713.619
-24634.642
-27604.592
-30522.486
-33286.156
-35867.182
-38252.631
-40247.886
-41701.029
-42547.01
-42828.134
-42669.566
-42120.907
-41159.121
-39747.086
-37825.637
-35320.985
-32243.072
-28747.303
-25066.648
-21429.697
-18019.728
-14953.109
-12284.444
-10023.664
-8149.8013
-6625.9415
-5407.7829
-4449.7556
-3707.8415
-3141.9281
-2716.2919
-2399.737
-2165.512
-1991.4419
-1859.8311
-1757.0413
-1672.9023
-1600.025
-1533.2605
-1469.1557
-1405.5686
-1341.4377
-1276.3857
-1210.5339
-1144.338
-1078.396
-1013.3375
-949.76631
-888.2297
-829.1436
-772.78858
-719.42038
-669.30674
-622.69921
-579.68105
-540.17089
-504.04222
-471.10229
-441.21396
-414.3061
-390.32871
-369.27391
-351.15897
-336.00781
-323.92718
-314.94467
-309.8341
-309.00788
-317.21717
-342.29395
-373.45404
-407.68949
-434.51705
-455.09432
-462.81805
-454.99624
-430.87563
-397.05118
-356.3878
-310.51621
-261.924
-212.46796
-163.25975
-115.00285
-67.620361
-21.908094
-4417.6258
-4457.325
-4572.6225
-4788.9876
-5377.0994
-6151.4968
-7076.236
-8216.1721
-9582.4481
-11220.038
-13167.858
-15440.021
-17991.879
-20740.302
-23618.277
-26559.97
-29443.467
-32183.087
-34783.866
-37235.42
-39312.303
-40867.59
-41845.985
-42252.733
-42165.87
-41658.967
-40724.756
-39299.443
-37306.388
-34710.909
-31583.407
-28104.205
-24482.686
-20912.855
-17559.535
-14527.617
-11868.747
-9599.122
-7703.4413
-6154.1371
-4913.1647
-3940.58
-3194.4128
-2635.5938
-2227.6028
-1937.4925
-1736.2112
-1599.3035
-1507.0228
-1444.0525
-1398.8559
-1363.003
-1330.5581
-1297.5701
-1261.661
-1221.7021
-1177.4443
-1129.3123
-1078.0997
-1024.7497
-970.24019
-915.50096
-861.37039
-808.52689
-757.42937
-708.51395
-662.19228
-618.83262
-578.62803
-541.55009
-507.53441
-476.43386
-448.18533
-422.74924
-400.14475
-380.39502
-363.5826
-349.76939
-339.14006
-331.94644
-328.91571
-331.28971
-342.64004
-370.29666
-400.43949
-433.86681
-463.02439
-479.29513
-487.53546
-476.10683
-449.1305
-413.56936
-370.654
-322.19935
-270.91141
-218.91043
-167.46399
-117.33295
-68.460467
-22.055797
-4187.3159
-4246.8563
-4317.2262
-4579.4186
-5174.8442
-5829.6608
-6608.4091
-7603.7459
-8858.1415
-10413.213
-12300.869
-14516.13
-17005.466
-19689.301
-22498.649
-25348.606
-28137.939
-30829.226
-33451.241
-35907.177
-37983.363
-39587.311
-40662.402
-41185.044
-41185.66
-40730.644
-39822.769
-38393.745
-36376.817
-33767.049
-30659.644
-27223.535
-23668.132
-20196.994
-16953.373
-14003.015
-11396.44
-9151.4174
-7262.0911
-5706.9106
-4457.5737
-3478.2235
-2732.302
-2181.9344
-1790.8951
-1524.8323
-1352.8852
-1248.706
-1190.986
-1163.0845
-1152.3608
-1149.4583
-1147.7092
-1142.6425
-1131.6082
-1113.405
-1087.9253
-1055.8156
-1018.1691
-976.25129
-931.35727
-884.69583
-837.3717
-790.30086
-744.0897
-699.3293
-656.61781
-616.39799
-578.95776
-544.30514
-512.43297
-483.24643
-456.74396