/*--------------------------------*- C++ -*----------------------------------*\
| =========                 |                                                 |
| \\      /  F ield         | OpenFOAM: The Open Source CFD Toolbox           |
|  \\    /   O peration     | Version:  2406                                  |
|   \\  /    A nd           | Website:  www.openfoam.com                      |
|    \\/     M anipulation  |                                                 |
\*---------------------------------------------------------------------------*/
FoamFile
{
    version     2.0;
    format      ascii;
    arch        "LSB;label=32;scalar=64";
    class       volScalarField;
    location    "100";
    object      p;
}
// * * * * * * * * * * * * * * * * * * * * * * * * * * * * * * * * * * * * * //

dimensions      [0 2 -2 0 0 0 0];

internalField   nonuniform List<scalar> 
10720
(
448.35727
453.75816
451.77791
439.19109
411.2492
369.96891
319.80873
263.14308
201.21339
137.27155
73.304539
11.144986
-47.78186
-102.76982
-153.14151
-198.0014
-237.3428
-269.78505
-295.52359
-313.09919
-322.79492
-323.83624
-317.68045
-304.69063
-287.88152
-272.31454
-257.8164
-241.45979
-223.1252
-203.4406
-183.04546
-163.10165
-144.12305
-125.09067
-100.68598
-66.209392
-25.954183
19.248205
67.982539
433.51948
408.75999
369.77187
316.07714
248.48211
168.82588
83.388697
2.538251
-65.270836
-120.08275
-159.32725
-182.60613
-195.3596
-201.2967
-202.11589
-201.59102
-200.20566
-199.33739
-199.3701
-201.19082
-204.30498
-209.12808
-215.06735
-220.9306
-222.58456
-218.02312
-209.9647
-199.63429
-187.13693
-172.46334
-156.20023
-139.19583
-122.16498
-104.89642
-84.70895
-56.493216
-20.708746
21.81694
72.562101
428.48051
434.09192
432.23537
420.88613
398.81508
366.94766
327.05349
280.44623
228.20591
172.30401
114.60317
56.802375
0.37914909
-53.557119
-104.02217
-150.06764
-191.11633
-226.07703
-254.60621
-275.68981
-289.23239
-294.55409
-292.45295
-283.77144
-271.26064
-258.91385
-246.73812
-232.46721
-216.00097
-197.98213
-179.07004
-160.39733
-142.40839
-123.98211
-99.863833
-65.602463
-25.626497
19.529438
67.92154
416.47391
397.78299
369.67618
330.74369
281.54759
223.1332
158.86715
94.126495
33.764204
-19.699242
-63.872364
-97.677877
-122.86817
-140.99872
-153.2179
-161.94959
-168.31457
-173.52472
-178.32569
-183.54435
-189.16625
-195.56414
-202.39598
-208.61363
-210.85753
-207.57943
-200.87318
-191.85426
-180.62138
-167.18107
-152.09205
-136.15916
-120.04346
-103.47458
-83.691811
-55.714766
-20.205891
22.180363
72.54775
402.4818
407.4244
406.14708
397.17323
379.54921
353.16968
318.85249
277.57407
230.33876
178.71947
124.46984
69.175695
14.35526
-38.696994
-88.849143
-135.11325
-176.6462
-212.52363
-242.12164
-264.63627
-279.61755
-286.54093
-286.14061
-279.31358
-268.34711
-256.5299
-244.3544
-230.2127
-213.9307
-196.08449
-177.308
-158.65146
-140.40039
-121.58222
-97.505274
-63.935129
-24.771152
19.943781
67.697836
392.29752
376.59287
352.92419
319.79375
277.74704
227.05892
169.71503
109.7005
51.38799
-1.9276123
-48.014868
-85.276565
-113.76758
-134.50351
-148.99248
-159.18076
-166.56996
-172.31378
-177.32604
-182.39343
-187.74381
-193.55047
-199.5371
-204.74908
-206.75241
-204.01683
-197.82758
-189.1992
-178.29295
-165.15426
-150.3051
-134.47481
-118.25223
-101.40186
-81.485625
-53.897675
-19.102509
22.777013
72.286287
374.68806
379.00057
378.12421
370.86575
356.49901
334.60944
305.71115
270.4914
229.60508
184.26017
135.80077
85.515661
34.770369
-15.182925
-63.171348
-108.13523
-149.11194
-185.16367
-215.49219
-239.31156
-256.04917
-265.33063
-267.64884
-263.85808
-255.72311
-245.93712
-235.31558
-222.71096
-207.85585
-191.25446
-173.532
-155.63146
-137.65843
-118.77256
-94.993435
-62.330661
-24.047927
20.13149
67.101543
366.05684
352.99014
333.35404
305.91665
271.26298
229.22803
181.18139
130.33089
79.972592
32.609672
-9.7627732
-45.730081
-75.037006
-98.224244
-116.23414
-130.25351
-141.33848
-150.4115
-158.28271
-165.68118
-172.93074
-180.16992
-187.18189
-193.15607
-196.21416
-194.92168
-190.04699
-182.56505
-172.71948
-160.57685
-146.6101
-131.47814
-115.68714
-98.997329
-79.249165
-52.268342
-18.258461
23.108931
71.456003
347.59699
351.37223
350.74603
344.74318
332.81907
314.38558
289.72878
259.30684
223.50179
183.23352
139.53443
93.450714
46.205302
-1.0163293
-47.054275
-90.804202
-131.22435
-167.33638
-198.23945
-223.15044
-241.41463
-252.66926
-257.11938
-255.46279
-249.21546
-240.68263
-230.84102
-218.93405
-204.69514
-188.59089
-171.25798
-153.58979
-135.60754
-116.57124
-92.997428
-61.032989
-23.489866
20.157009
66.138606
340.19285
329.09863
312.37028
288.90865
259.3384
223.23776
181.51603
136.77228
91.600158
47.950228
7.5876885
-28.105653
-58.579404
-83.862846
-104.35768
-120.74052
-133.85336
-144.53469
-153.58344
-161.69232
-169.27058
-176.48707
-183.19498
-188.7716
-191.74021
-190.81058
-186.37751
-179.30366
-169.86443
-158.12257
-144.50705
-129.62212
-113.93839
-97.231989
-77.52375
-50.940534
-17.530064
23.308863
70.231108
322.01628
325.32382
324.82341
319.70108
309.58692
293.81628
272.57606
246.21018
214.89816
179.35024
140.34821
98.699361
55.440944
11.625469
-31.676079
-73.385159
-112.43869
-147.84631
-178.65509
-204.04001
-223.30418
-236.01603
-242.30252
-242.76755
-238.62449
-231.75044
-223.16173
-212.42488
-199.30048
-184.20017
-167.73797
-150.72827
-133.10707
-114.19853
-90.947886
-59.689121
-22.865175
20.175613
65.011304
315.61626
306.11326
291.74377
271.53474
246.14251
215.01393
178.79647
139.69949
99.858705
60.77287
23.957542
-9.3498825
-38.601305
-63.64299
-84.641263
-102.03517
-116.45583
-128.56076
-138.99349
-148.3135
-156.89536
-164.90078
-172.21428
-178.26902
-181.90932
-182.01688
-178.72471
-172.72342
-164.29255
-153.50338
-140.74598
-126.56657
-111.3836
-94.957838
-75.479725
-49.391579
-16.640798
23.535134
68.881133
298.25762
301.14001
300.69595
296.2096
287.45071
273.76428
255.25854
232.21007
204.66895
173.18048
138.32749
100.7131
61.198337
20.681964
-19.875007
-59.446143
-97.000006
-131.5388
-162.0858
-187.78653
-207.90408
-221.97535
-229.95497
-232.29794
-229.96569
-224.52014
-216.96959
-207.14717
-194.87473
-180.51959
-164.68354
-148.13495
-130.74245
-111.89048
-88.91833
-58.336939
-22.217964
20.155469
63.76509
292.69769
284.47601
272.0026
254.3888
232.29886
205.11671
173.30036
138.76935
103.31797
68.092185
34.351868
3.1836007
-24.935202
-49.779409
-71.331149
-89.793118
-105.54895
-119.02044
-130.67991
-140.97396
-150.25117
-158.68012
-166.18601
-172.33032
-176.1958
-176.81978
-174.12081
-168.65582
-160.72487
-150.42324
-138.1102
-124.28032
-109.31035
-92.967674
-73.613261
-47.975363
-15.866922
23.609479
67.425437
276.34253
278.84157
278.39791
274.37504
266.6608
254.60757
238.31193
218.00124
193.64811
165.6787
134.53239
100.65054
64.727514
27.511969
-10.155806
-47.342295
-83.070306
-116.36512
-146.25615
-171.87627
-192.45851
-207.48637
-216.81534
-220.78773
-220.1482
-216.15939
-209.76433
-200.98873
-189.714
-176.2641
-161.20072
-145.22991
-128.16499
-109.44468
-86.781854
-56.900572
-21.53451
20.075076
62.422648
271.49633
264.33617
253.42511
237.95526
218.57539
194.6513
166.5209
135.88179
104.27674
72.605907
41.926394
13.185965
-13.223201
-37.067633
-58.239798
-76.813227
-93.00038
-107.07643
-119.39297
-130.3071
-140.11708
-148.97055
-156.80778
-163.24165
-167.52765
-168.85341
-167.02951
-162.44829
-155.38353
-145.92898
-134.39379
-121.20877
-106.70047
-90.636175
-71.537902
-46.424577
-15.020171
23.649836
65.909565
256.19558
258.34305
257.86597
254.19504
247.28459
236.54612
222.04759
204.00316
182.33741
157.38956
129.49424
98.962513
66.351584
32.272931
-2.5619565
-37.321554
-71.102938
-102.98372
-132.01927
-157.34656
-178.17754
-193.95895
-204.4479
-209.85652
-210.73536
-208.0957
-202.79188
-194.98865
-184.63478
-172.01911
-157.66319
-142.23225
-125.49287
-106.93213
-84.597464
-55.431091
-20.858894
19.909434
60.946373
251.96194
245.6881
236.08505
222.39983
205.26246
184.04266
158.99147
131.6256
103.30566
74.746433
46.838992
20.406569
-4.2510348
-26.930799
-47.497185
-65.955652
-82.40452
-96.990753
-109.94644
-121.5109
-131.89844
-141.21031
-149.38603
-156.09928
-160.74675
-162.6324
-161.46898
-157.52759
-151.0705
-142.20494
-131.21252
-118.47583
-104.28446
-88.41342
-69.530631
-44.912632
-14.216552
23.591676
64.313931
237.68942
239.51903
238.98839
235.57936
229.31874
219.63661
206.62
190.46625
171.07403
148.72419
123.67314
96.137241
66.562569
35.433724
3.3450435
-28.972914
-60.714608
-91.020862
-118.99241
-143.78015
-164.59789
-180.85988
-192.24254
-198.84911
-201.08095
-199.71488
-195.50178
-188.68754
-179.2804
-167.5362
-153.92856
-139.07209
-122.70458
-104.36257
-82.384085
-53.945477
-20.207067
19.643929
59.346992
233.98197
228.4611
219.96725
207.79051
192.53856
173.5975
151.15531
126.58509
101.10168
75.287159
49.902516
25.673349
2.8173247
-18.510171
-38.170759
-56.140398
-72.446204
-87.147409
-100.37345
-112.2731
-122.98546
-132.57472
-140.97826
-147.9159
-152.87633
-155.27897
-154.80528
-151.60483
-145.89339
-137.77176
-127.47638
-115.33296
-101.58567
-86.014838
-67.422567
-43.347037
-13.402484
23.450388
62.615607
220.68431
222.22984
221.6364
218.4313
212.68472
203.88397
192.09804
177.53388
160.07481
139.96077
117.39327
92.517272
65.687201
37.288218
7.8073256
-22.131797
-51.816895
-80.464424
-107.23194
-131.30503
-151.91067
-168.4403
-180.51327
-188.11989
-191.53901
-191.34288
-188.17241
-182.31322
-173.82315
-162.92826
-150.05542
-135.78018
-119.81664
-101.73886
-80.142159
-52.440086
-19.562229
19.291194
57.619194
217.43552
212.55899
205.01333
194.12824
180.47801
163.47547
143.26368
121.09211
98.059769
74.651792
51.530503
29.337637
8.2225994
-11.705936
-30.3247
-47.610187
-63.557657
-78.164995
-91.490711
-103.60449
-114.57809
-124.42895
-133.08102
-140.27857
-145.58128
-148.48141
-148.63249
-146.08907
-141.02709
-133.54605
-123.85389
-112.23043
-98.882443
-83.598528
-65.304239
-41.775442
-12.604814
23.223931
60.828301
205.04602
206.3383
205.68005
202.63269
197.31703
189.24117
178.49798
165.28159
149.47606
131.29338
110.89576
88.376634
64.019778
38.124261
11.086876
-16.564584
-44.213345
-71.156882
-96.618663
-119.8293
-140.0378
-156.62967
-169.17799
-177.58119
-182.0173
-182.88491
-180.70858
-175.78098
-168.19398
-158.1494
-146.02923
-132.34769
-116.8186
-99.05123
-77.862865
-50.908421
-18.918925
18.858155
55.803198
202.20028
197.88197
191.15463
181.38104
169.10752
153.77206
135.48244
115.38469
94.484787
73.195228
52.098771
31.769383
12.308318
-6.2178423
-23.713996
-40.166296
-55.560911
-69.863593
-83.082097
-95.22635
-106.30861
-116.30305
-125.11876
-132.51359
-138.09465
-141.41838
-142.14242
-140.24301
-135.84651
-129.03986
-119.99381
-108.9382
-96.040751
-81.095952
-63.143227
-40.190903
-11.822238
22.916595
58.9573
190.65226
191.7185
190.99414
188.07756
183.11371
175.66196
165.80147
153.73846
139.35912
122.85125
104.35246
83.918923
61.779919
38.166774
13.397064
-12.087633
-37.758396
-62.994092
-87.08974
-109.32957
-128.99586
-145.47624
-158.31507
-167.33218
-172.6209
-174.43855
-173.19383
-169.16058
-162.44918
-153.23714
-141.85705
-128.77726
-113.71525
-96.304575
-75.554796
-49.358687
-18.281346
18.350265
53.892592
188.16096
184.32925
178.31149
169.50486
158.42368
144.53133
127.91249
109.62172
90.586133
71.163674
51.874462
33.239282
15.323244
-1.8449739
-18.19525
-33.735125
-48.451113
-62.296335
-75.249541
-87.282864
-98.360523
-108.41965
-117.35006
-124.9161
-130.75702
-134.47161
-135.7235
-134.42621
-130.6583
-124.48992
-116.06129
-105.55875
-93.114109
-78.52937
-60.948664
-38.591976
-11.055588
22.535191
57.017064
177.39003
178.25409
177.46729
174.65487
169.99771
163.07326
153.97736
142.90969
129.76615
114.71867
97.886034
79.299278
59.145102
37.603159
14.921694
-8.5317339
-32.30484
-55.857017
-78.556381
-99.744071
-118.74642
-134.96253
-147.92131
-157.37965
-163.35949
-166.00907
-165.62446
-162.44077
-156.57351
-148.18101
-137.54759
-125.07845
-110.50816
-93.497739
-73.214966
-47.789331
-17.658934
17.771425
51.906034
175.21007
171.80449
166.40901
158.44639
148.40559
135.77552
120.61824
103.91014
86.513076
68.741223
51.067254
33.967221
17.479145
1.6043318
-13.611348
-28.195793
-42.147833
-55.419908
-67.977986
-79.770446
-90.728722
-100.76045
-109.73668
-117.42323
-123.47724
-127.52792
-129.25396
-128.52041
-125.35839
-119.81767
-112.00519
-102.065
-90.094601
-75.90182
-58.725411
-36.989181
-10.308711
22.082542
55.010675
165.15553
165.84018
164.99444
162.2734
157.87571
151.41591
142.98063
132.78085
120.71679
106.94939
91.585132
74.636767
56.258037
36.586253
15.818524
-5.7420924
-27.714256
-49.630989
-70.933236
-91.022384
-109.26838
-125.09367
-138.02332
-147.76819
-154.28773
-157.65158
-158.04882
-155.66473
-150.60661
-143.00839
-133.10328
-121.24957
-107.20102
-90.6357
-70.852897
-46.212035
-17.05192
17.118299
49.843976
163.25141
160.22022
155.3711
148.15418
139.02669
127.50397
113.63614
98.324747
82.374496
66.068827
49.839516
34.127516
18.950537
4.2908869
-9.8251608
-23.445982
-36.585128
-49.205354
-61.270817
-72.716842
-83.45639
-93.374919
-102.33071
-110.08725
-116.3118
-120.65096
-122.80004
-122.58631
-119.99848
-115.06051
-107.84891
-98.468111
-86.983697
-73.209548
-56.4718
-35.379829
-9.584849
21.565078
52.948602
153.85602
154.37926
153.48286
150.84147
146.67726
140.61737
132.76674
123.32906
112.21322
99.573913
85.507576
70.014663
53.224793
35.242909
16.223259
-3.5853871
-23.863226
-44.209886
-64.134521
-83.098411
-100.5209
-115.85279
-128.6224
-138.51296
-145.42976
-149.38903
-150.48194
-148.83799
-144.54696
-137.71688
-128.54081
-117.30798
-103.80139
-87.717222
-68.464724
-44.621816
-16.464217
16.404288
47.725853
152.19778
149.49705
145.13124
138.57276
130.25283
119.71248
106.98453
92.912212
78.247455
63.24896
48.315166
33.857527
19.881391
6.3546146
-6.7127642
-19.385288
-31.692948
-43.611096
-55.111317
-66.12615
-76.560435
-86.287721
-95.156215
-102.92764
-109.27287
-113.85041
-116.36963
-116.63053
-114.5826
-110.22386
-103.59918
-94.776662
-83.791892
-70.463845
-54.195135
-33.772346
-8.8844035
20.985878
50.839417
143.40984
143.79213
142.84919
140.28216
136.32004
130.62186
123.2864
114.52252
104.24654
92.606202
79.691379
65.496495
50.130363
33.67383
16.245813
-1.94877
-20.643585
-39.496874
-58.08021
-75.913483
-92.467047
-107.22458
-119.72583
-129.63746
-136.82329
-141.26258
-142.96452
-141.99991
-138.43064
-132.33634
-123.86366
-113.25199
-100.30992
-84.746541
-66.059017
-43.031549
-15.896699
15.632811
45.548545
141.96983
139.56325
135.62521
129.65467
122.05143
112.38249
100.67312
87.705254
74.18769
60.358474
46.58945
33.266974
20.388294
7.9106254
-4.1659262
-15.921784
-27.399425
-38.590408
-49.475841
-59.995464
-70.052625
-79.518344
-88.236698
-95.968583
-102.3847
-107.14964
-109.98528
-110.67351
-109.12879
-105.32162
-99.265789
-90.996155
-80.519837
-67.661708
-51.894398
-32.165198
-8.2099966
20.355655
48.694405
133.74451
133.99958
133.0188
130.51883
126.74344
121.36518
114.49298
106.3296
96.801037
86.050446
74.162765
61.127024
47.03798
31.956645
15.976387
-0.73508015
-17.957804
-35.399639
-52.690186
-69.403663
-85.061998
-99.18349
-111.32535
-121.1494
-128.48794
-133.2952
-135.51548
-135.16214
-132.26345
-126.87023
-119.09213
-109.10314
-96.740125
-81.72709
-63.633853
-41.436751
-15.349363
14.81895
43.330492
132.49779
130.35181
126.79683
121.3502
114.38726
105.49979
94.700458
82.723273
70.234498
57.456748
44.738338
32.444577
20.56635
9.057103
-2.0925238
-12.971713
-23.637749
-34.094647
-44.336748
-54.314875
-63.939322
-73.083268
-81.592644
-89.23065
-95.667029
-100.56962
-103.66875
-104.73594
-103.65463
-100.36899
-94.862577
-87.139169
-77.181028
-64.815775
-49.579177
-30.565422
-7.5616185
19.678001
46.526183
124.79193
124.93751
123.92323
121.48833
117.88011
112.79622
106.33902
98.715059
89.85723
79.902654
68.933623
56.937092
43.99609
30.157537
15.493571
0.14123195
-15.717103
-31.834298
-47.890037
-63.509702
-78.26268
-91.70487
-103.41625
-113.0601
-120.44945
-125.52031
-128.17183
-128.3613
-126.08053
-121.34785
-114.23361
-104.86179
-93.092776
-78.66074
-61.196034
-39.848409
-14.823592
13.960491
41.077863
123.71742
121.80438
118.59162
113.61658
107.22781
99.040383
89.062725
77.977902
66.416431
54.587467
42.819457
31.458996
20.494272
9.8765772
-0.41003599
-10.460412
-20.342889
-30.074142
-39.661629
-49.068809
-58.218302
-66.991458
-75.24083
-82.732847
-89.138728
-94.128689
-97.438578
-98.835369
-98.176564
-95.379554
-90.400126
-83.212666
-73.776896
-61.923484
-47.245995
-28.971345
-6.9403013
18.964887
44.345995
116.4947
116.54277
115.50307
113.12953
109.67936
104.85976
98.781718
91.645709
83.391421
74.152855
64.009937
52.948072
41.042111
28.32777
14.859554
0.75091296
-13.847639
-28.727578
-43.612018
-58.171898
-72.023517
-84.759063
-95.984201
-105.36976
-112.72015
-117.95717
-120.95305
-121.61333
-119.89255
-115.77949
-109.30879
-100.55188
-89.384641
-75.555887
-58.746898
-38.263379
-14.317307
13.074016
38.810737
115.57334
113.86846
110.96384
106.41137
100.53988
92.986579
83.749946
73.473214
62.751616
51.782733
40.877171
30.365921
20.236873
10.438554
0.95250166
-8.3205433
-17.454964
-26.479519
-35.413805
-44.236565
-52.88272
-61.245998
-69.190119
-76.489472
-82.817891
-87.84661
-91.315994
-92.993745
-92.714361
-90.371836
-85.895186
-79.232866
-70.323375
-59.000861
-44.906744
-27.39101
-6.344012
18.220207
42.165807
108.80008
108.76395
107.70276
105.39064
102.08466
97.512016
91.779322
85.086943
77.380166
68.788963
59.390835
49.172266
38.200087
26.503064
14.122369
1.1510982
-12.286268
-26.012942
-39.791377
-53.333899
-66.298973
-78.31438
-89.013043
-98.077961
-105.31389
-110.63139
-113.89012
-114.95109
-113.73226
-110.19321
-104.33101
-96.17787
-85.617623
-72.413859
-56.29045
-36.688369
-13.832283
12.159516
36.534928
108.01489
106.49669
103.8678
99.698811
94.294777
87.314027
78.752489
69.209863
59.251147
49.064688
38.944966
29.20796
19.842697
10.797365
2.0524163
-6.4936398
-14.919934
-23.264266
-31.557625
-39.793396
-47.919569
-55.845658
-63.447287
-70.512491
-76.718325
-81.739334
-85.318601
-87.228764
-87.285009
-85.36055
-81.359952
-75.207881
-66.823576
-56.044993
-42.557627
-25.820787
-5.7733975
17.456772
39.997487
101.66094
101.54949
100.47376
98.221621
95.053558
90.706577
85.293396
79.00683
71.798508
63.795174
55.072336
45.616322
35.489845
24.714992
13.323079
1.3919304
-10.97647
-23.632431
-36.372079
-48.944399
-61.045575
-72.338406
-82.48312
-91.178008
-98.234328
-103.55654
-107.0002
-108.39103
-107.61475
-104.60295
-99.321891
-91.761822
-81.810631
-69.246485
-53.831752
-35.123709
-13.365575
11.234957
34.268279
100.99677
99.645454
97.265776
93.442439
88.463401
82.005061
74.05698
65.184824
55.922749
46.451043
37.049291
28.02033
19.354476
11.002362
2.9419632
-4.9269725
-12.687626
-20.384104
-28.057733
-35.712669
-43.31285
-50.783047
-58.015063
-64.810234
-70.853191
-75.822699
-79.465624
-81.56098
-81.909253
-80.365551
-76.813457
-71.155702
-63.295555
-53.073321
-40.212292
-24.268367
-5.2253261
16.679616
37.853609
95.033164
94.858509
93.771665
91.579979
88.539954
84.405815
79.287186
73.373562
66.621873
59.154902
51.046074
42.283033
32.9241
22.986769
12.495217
1.5142347
-9.8712737
-21.535874
-33.30326
-44.955331
-56.221835
-66.798624
-76.373804
-84.663403
-91.487038
-96.748668
-100.30668
-101.96094
-101.56961
-99.036537
-94.29906
-87.313842
-77.969023
-66.056513
-51.37259
-33.571752
-12.917279
10.300052
32.018155
94.477095
93.276384
91.120311
87.612638
83.019852
77.036872
69.651719
61.39319
52.76967
43.952651
35.209481
26.8301
18.80612
11.090498
3.6624899
-3.5781168
-10.715803
-17.799768
-24.878784
-31.967385
-39.044122
-46.049313
-52.891569
-59.387299
-65.231962
-70.109476
-73.772007
-76.007177
-76.603916
-75.402612
-72.269104
-67.086325
-59.743896
-50.084848
-37.866528
-22.729429
-4.6990457
15.899869
35.745477
88.878608
88.647833
87.556488
85.424633
82.508054
78.571434
73.72713
68.15817
61.826245
54.850422
47.302184
39.170322
30.509613
21.335072
11.664308
1.5522795
-8.9310192
-19.677965
-30.537967
-41.320387
-51.786844
-61.661835
-70.661435
-78.520404
-85.068818
-90.214957
-93.823198
-95.677486
-95.613338
-93.510866
-89.282147
-82.854372
-74.11079
-62.858199
-48.920092
-32.035896
-12.483628
9.3720524
29.803027
88.418899
87.353384
85.40088
82.179312
77.939364
72.392184
65.522292
57.828429
49.791767
41.577076
33.439679
25.657389
18.223621
11.094518
4.2494374
-2.4092886
-8.9656225
-15.473708
-21.986353
-28.52914
-35.09195
-41.630795
-48.070462
-54.244615
-59.860673
-64.611208
-68.253659
-70.585532
-71.388866
-70.492222
-67.746476
-63.019279
-56.187516
-47.096956
-35.534288
-21.211343
-4.1903873
15.12462
33.684873
83.161527
82.88376
81.791403
79.719276
76.919577
73.170839
68.581955
63.332421
57.388265
50.864135
43.829593
36.274833
28.25124
19.771776
10.850265
1.5332058
-8.1211644
-18.020656
-28.036209
-38.00067
-47.704203
-56.898285
-65.324099
-72.736025
-78.97759
-83.963423
-87.565861
-89.562479
-89.77124
-88.051807
-84.292377
-78.398521
-70.245969
-59.65596
-46.476022
-30.513707
-12.062135
8.4534414
27.63287
82.787808
81.844224
80.075467
77.116588
73.198681
68.051036
61.65636
54.48267
46.987297
39.328478
31.749869
24.517644
17.62825
11.039795
4.733243
-1.3873759
-7.40498
-13.372893
-19.350542
-25.371322
-31.436444
-37.514535
-43.545649
-49.381247
-54.744227
-59.335963
-62.922668
-65.310314
-66.279485
-65.649959
-63.260251
-58.965636
-52.633417
-44.111581
-33.212012
-19.709591
-3.6978809
14.362873
31.682646
77.850045
77.531108
76.443227
74.430841
71.744055
68.171604
63.822376
58.87044
53.285362
47.178017
40.615833
33.590015
26.149609
18.305254
10.068844
1.4795835
-7.4131435
-16.531046
-25.761647
-34.959908
-43.939242
-52.47727
-60.337835
-67.295143
-73.206798
-77.995895
-81.543667
-83.629053
-84.058333
-82.674575
-79.348485
-73.963694
-66.391233
-56.463363
-44.048019
-29.010107
-11.649825
7.5592627
25.523421
77.55298
76.71895
75.117565
72.397674
68.776134
63.996733
58.040207
51.34774
44.353238
37.208887
30.147348
23.423759
17.03585
10.946248
5.1361941
-0.48733947
-6.0033539
-11.468209
-16.943005
-22.468556
-28.055009
-33.682225
-39.305679
-44.793641
-49.884159
-54.290881
-57.790723
-60.197577
-61.294339
-60.895088
-58.830458
-54.945065
-49.099389
-41.144529
-30.912954
-18.230569
-3.2166895
13.623011
29.74885
72.914509
72.561973
71.48071
69.528423
66.949931
63.54545
59.421501
54.747381
49.495931
43.774475
37.647823
31.108526
24.202674
16.94068
9.3311454
1.4089095
-6.7842748
-15.180706
-23.683437
-32.165576
-40.460949
-48.370258
-55.679621
-62.181744
-67.748038
-72.313915
-75.767231
-77.895484
-78.497072
-77.404007
-74.4721
-69.569193
-62.560055
-53.287884
-41.639005
-27.521424
-11.241369
6.6930206
23.484724
72.685007
71.950161
70.500715
68.001109
64.651571
60.211675
54.661293
48.414939
41.885047
35.218048
28.636205
22.383369
16.460284
10.83134
5.4786379
0.31586279
-4.7364523
-9.7327283
-14.738377
-19.796498
-24.925923
-30.11686
-35.338725
-40.474481
-45.279247
-49.480188
-52.865754
-55.258353
-56.447374
-56.243467
-54.47183
-50.970494
-45.594923
-38.199542
-28.635512
-16.770283
-2.744312
12.911096
27.89305
68.327517
67.946337
66.875847
64.983773
62.510277
59.265274
55.354135
50.94016
45.999636
40.636274
34.912419
28.821349
22.407582
15.679701
8.6457543
1.3356022
-6.2145189
-13.946034
-21.774234
-29.588038
-37.240172
-44.550651
-51.327033
-57.378714
-62.591966
-66.913511
-70.239547
-72.369771
-73.099571
-72.254289
-69.678817
-65.229833
-58.767067
-50.141604
-39.255736
-26.052145
-10.836142
5.8673436
21.527263
68.158326
67.513036
66.202714
63.904282
60.806287
56.6808
51.506592
45.674898
39.577366
33.354608
27.218583
21.403228
15.910182
10.707215
5.7783414
1.0396472
-3.5829848
-8.1465051
-12.713895
-17.334086
-22.029711
-26.802162
-31.631296
-36.415778
-40.926797
-44.906144
-48.155034
-50.504586
-51.753522
-51.711999
-50.202846
-47.060294
-42.137225
-35.292017
-26.390554
-15.333842
-2.2768016
12.236906
26.123844
64.064603
63.66052
62.602848
60.771075
58.399444
55.306575
51.59678
47.427383
42.777251
37.746828
32.396307
26.719816
20.759292
14.523455
8.0180172
1.2704597
-5.6882277
-12.806775
-20.010946
-27.202376
-34.250689
-40.994408
-47.258456
-52.870645
-57.729092
-61.792455
-64.966533
-67.064093
-67.883425
-67.246536
-64.991058
-60.965943
-55.027255
-47.035114
-36.901849
-24.599298
-10.42512
5.0865093
19.661223
63.948703
63.384492
62.200221
60.08826
57.222157
53.38781
48.564221
43.118935
37.424364
31.615716
25.895381
20.486357
15.39269
10.584065
6.0461918
1.7001916
-2.5259679
-6.6880966
-10.849794
-15.05956
-19.346688
-23.720237
-28.169599
-32.607357
-36.821335
-40.568597
-43.662472
-45.944534
-47.224627
-47.314559
-46.037363
-43.227423
-38.736464
-32.427106
-24.178945
-13.91842
-1.8101609
11.604554
24.448577
60.103104
59.679796
58.638262
56.866881
54.593426
51.646604
48.127576
44.188072
39.810474
35.090815
30.086861
24.794186
19.252692
13.469945
7.4514877
1.221437
-5.192775
-11.745871
-18.37294
-24.986362
-31.470029
-37.678397
-43.45395
-48.639686
-53.14651
-56.943953
-59.946831
-61.983142
-62.857112
-62.391517
-60.421094
-56.790302
-51.353445
-43.977149
-34.584556
-23.16578
-10.009218
4.3596588
17.893269
60.034236
59.542902
58.474523
56.533419
53.88245
50.319299
45.821669
40.737276
35.419357
29.997822
24.665386
19.635641
14.913032
10.46999
6.2936852
2.3099807
-1.5505138
-5.3420225
-9.1269644
-12.955271
-16.859483
-20.855355
-24.939691
-29.038789
-32.95657
-36.465128
-39.390666
-41.585476
-42.871747
-43.065229
-41.991882
-39.488184
-35.408284
-29.618731
-22.010297
-12.528066
-1.3415615
11.021927
22.873146
56.421995
55.984197
54.960272
53.24883
51.070993
48.263318
44.925804
41.203895
37.081688
32.652174
27.971188
23.034526
17.880685
12.516742
6.9472087
1.1942833
-4.7183031
-10.750157
-16.843218
-22.919955
-28.876772
-34.582143
-39.893866
-44.670191
-48.83282
-52.361236
-55.180607
-57.133561
-58.033141
-57.706381
-55.988196
-52.721494
-47.761064
-40.979792
-32.307738
-21.75043
-9.5810348
3.6910572
16.232151
56.394489
55.969266
55.006062
53.223759
50.771579
47.46022
43.267947
38.521102
33.555661
28.496336
23.527032
18.850949
14.474237
10.370606
6.5287536
2.8792197
-0.64411941
-4.0938408
-7.5307282
-11.004804
-14.552678
-18.191532
-21.928114
-25.69957
-29.325291
-32.592514
-35.340606
-37.432093
-38.702867
-38.974608
-38.078207
-35.854751
-32.162244
-26.873236
-19.8862
-11.161337
-0.86761044
10.492215
21.402547
53.001821
52.552691
51.548879
49.897167
47.811408
45.13806
41.97286
38.456056
34.574499
30.416768
26.036607
21.431087
16.636613
11.66011
6.5051702
1.1922177
-4.2573566
-9.8078441
-15.407266
-20.986577
-26.452535
-31.68694
-36.560668
-40.946079
-44.77542
-48.036656
-50.664361
-52.516351
-53.416803
-53.199465
-51.702591
-48.770616
-44.260182
-38.05043
-30.077468
-20.355634
-9.1404893
3.0861247
14.679493
53.011024
52.645309
51.778802
50.141921
47.874984
44.798875
40.891432
36.460853
31.825996
27.106261
22.476966
18.13183
14.077248
10.289015
6.7572295
3.4163329
0.20394085
-2.9311747
-6.047048
-9.1950137
-12.409668
-15.714853
-19.121377
-22.578088
-25.919171
-28.946161
-31.511267
-33.487911
-34.725533
-35.053418
-34.309161
-32.340948
-29.012381
-24.20211
-17.815759
-9.8220448
-0.38579395
10.020717
20.040341
49.824908
49.367895
48.385373
46.792716
44.797122
42.251426
39.250758
35.929072
32.273601
28.370829
24.271676
19.974243
15.513404
10.895442
6.1240651
1.217649
-3.8044692
-8.9104041
-14.053692
-19.17194
-24.181749
-28.976032
-33.43813
-37.453132
-40.962351
-43.961736
-46.394644
-48.133475
-49.015349
-48.882521
-47.578977
-44.952868
-40.864994
-35.199952
-27.898836
-18.981057
-8.6825227
2.5485533
13.243456
49.866136
49.554462
48.775652
47.274353
45.178822
42.32172
38.681781
34.548235
30.223665
25.822545
21.511924
17.476563
13.722522
10.227969
6.9831936
3.9278264
1.0013332
-1.8438052
-4.6654369
-7.5111775
-10.418601
-13.411703
-16.507517
-19.664322
-22.729988
-25.520367
-27.900335
-29.754151
-30.944141
-31.308676
-30.693845
-28.956518
-25.967549
-21.611833
-15.800893
-8.5095322
0.10567493
9.6089942
18.788904
46.874432
46.412059
45.452619
43.918691
42.009557
39.587715
36.743531
33.605603
30.164492
26.501133
22.664928
18.654766
14.503929
10.218435
5.8018155
1.271324
-3.3560415
-8.0514879
-12.772761
-17.464263
-22.050189
-26.434187
-30.510733
-34.176307
-37.381081
-40.127035
-42.365582
-43.983344
-44.830783
-44.760753
-43.624585
-41.276778
-37.583232
-32.434833
-25.776543
-17.62927
-8.2071635
2.0808187
11.921476
46.943865
46.68072
45.983045
44.60606
42.670542
40.018605
36.628599
32.773981
28.741234
24.639682
20.628683
16.882798
13.410017
10.188282
7.2104158
4.4180473
1.7555617
-0.82401977
-3.374319
-5.9429934
-8.5658876
-11.269403
-14.074923
-16.947744
-19.749161
-22.308976
-24.504296
-26.230145
-27.361457
-27.746759
-27.24173
-25.71262
-23.038967
-19.112376
-13.84947
-7.2280857
0.6073301
9.259212
17.647853
44.134868
43.669884
42.734447
41.258277
39.434105
37.129772
34.435224
31.472924
28.233117
24.794919
21.20505
17.463049
13.600554
9.6237306
5.5358585
1.3529094
-2.9094589
-7.2253835
-11.556715
-15.853059
-20.046253
-24.048716
-27.765511
-31.103343
-34.019868
-36.522831
-38.571077
-40.063952
-40.865635
-40.840479
-39.849223
-37.753705
-34.426392
-29.764458
-23.715903
-16.301466
-7.712157
1.6839787
10.719227
44.228692
44.009695
43.385609
42.125131
40.337934
37.877168
34.722644
31.13045
27.372072
23.552381
19.822307
16.348441
13.137814
10.169886
7.4399808
4.8904894
2.471353
0.13507935
-2.1655807
-4.4807744
-6.8408707
-9.277994
-11.812305
-14.417637
-16.967537
-19.305048
-21.318884
-22.914268
-23.978808
-24.371514
-23.95835
-22.615981
-20.233177
-16.708818
-11.963736
-5.9770534
1.120119
8.9716313
16.617646
41.591118
41.125742
40.215608
38.796778
37.053926
34.864295
32.312166
29.515356
26.466825
23.240616
19.88186
16.390268
12.796325
9.1061075
5.322982
1.4616942
-2.4633642
-6.4285014
-10.399307
-14.330275
-18.159637
-21.808109
-25.190035
-28.221614
-30.867646
-33.139872
-35.003942
-36.370927
-37.118785
-37.12375
-36.257074
-34.389205
-31.400208
-27.193748
-21.720968
-14.999638
-7.1989026
1.3582158
9.6311038
41.70639
41.527109
40.971453
39.817811
38.16973
35.888518
32.954022
29.608906