/*--------------------------------*- C++ -*----------------------------------*\
| =========                 |                                                 |
| \\      /  F ield         | OpenFOAM: The Open Source CFD Toolbox           |
|  \\    /   O peration     | Version:  2406                                  |
|   \\  /    A nd           | Website:  www.openfoam.com                      |
|    \\/     M anipulation  |                                                 |
\*---------------------------------------------------------------------------*/
FoamFile
{
    version     2.0;
    format      ascii;
    arch        "LSB;label=32;scalar=64";
    class       surfaceScalarField;
    location    "100";
    object      phi;
}
// * * * * * * * * * * * * * * * * * * * * * * * * * * * * * * * * * * * * * //

dimensions      [0 3 -1 0 0 0 0];

oriented        oriented;

internalField   nonuniform List<scalar> 
21254
(
0.044222632
-0.016981473
-0.027240551
0.010547235
-0.027532907
0.040348434
-0.029807842
0.070610277
-0.030277082
0.10121002
-0.030600525
0.13088397
-0.029681897
0.15881659
-0.02792544
0.18491271
-0.026093789
0.20841317
-0.023499011
0.22961935
-0.021207308
0.24862725
-0.019009923
0.26532266
-0.016696619
0.28003326
-0.014711057
0.29284949
-0.012815527
0.30371054
-0.010859866
0.31280696
-0.0090946149
0.31999345
-0.0071852338
0.3253131
-0.0053179795
0.32863569
-0.0033214022
0.32993348
-0.0012952073
0.32824964
0.0016874529
0.32332962
0.0049255152
0.31511696
0.0082206034
0.30489013
0.010234257
0.29410894
0.010787883
0.28250304
0.011613723
0.26908545
0.013424258
0.25328808
0.015806096
0.23396431
0.019314529
0.20971526
0.024232876
0.17935673
0.030386678
0.14343554
0.03593961
0.10727373
0.036168301
0.081852633
0.025415609
0.081552848
0.00036577615
0.10050985
-0.018933603
0.11235288
-0.011771391
0.1005612
0.011889525
0.086497176
0.015201051
0.070953309
-0.026721447
0.10055549
-0.029595109
0.13207957
-0.031520713
0.16380991
-0.031726863
0.19526117
-0.031451422
0.22470626
-0.029444857
0.24972712
-0.025020639
0.26942729
-0.019699852
0.28444288
-0.015015287
0.29429468
-0.0098517051
0.29982847
-0.005533751
0.30247989
-0.0026513786
0.30289754
-0.00041752927
0.30134768
0.0015500833
0.29898356
0.0023644977
0.29607656
0.0029074636
0.29338875
0.0026884489
0.29115988
0.002229414
0.28979756
0.0013625759
0.2892778
0.00051949198
0.28956181
-0.00028573778
0.29028572
-0.00072596049
0.29092084
-0.00063987543
0.28970614
0.0012093282
0.28595272
0.0037486075
0.27999928
0.0059493625
0.27161857
0.0083809922
0.2606152
0.011008157
0.24637439
0.014232243
0.22804876
0.018329517
0.20449861
0.023556899
0.17531364
0.029175167
0.14268162
0.032645361
0.11293806
0.02976604
0.097203471
0.01571544
0.10234191
-0.0051170794
0.11402945
-0.011708874
0.10676282
0.0073956036
0.09203948
0.014486705
0.04027489
-0.014505237
-0.053015881
0.013608183
-0.055647122
0.043939954
-0.060149571
0.073062932
-0.059406869
0.10218976
-0.059731811
0.13085981
-0.058351128
0.15823778
-0.055301113
0.18445337
-0.052303565
0.20910429
-0.048149758
0.23199729
-0.044102034
0.25310825
-0.040123145
0.27238026
-0.03597004
0.28984895
-0.032179656
0.30556138
-0.028526009
0.31953918
-0.024834189
0.33168852
-0.021239686
0.34200622
-0.01749827
0.35068356
-0.013990749
0.35734796
-0.0099807736
0.36249251
-0.0064341789
0.36640076
-0.0022133756
0.3696964
0.0016391753
0.3721074
0.0058216881
0.37353132
0.0088229733
0.37442882
0.0099009746
0.37470368
0.011347252
0.37407632
0.014056721
0.37243675
0.017448126
0.36911923
0.022626411
0.36304335
0.030301106
0.3522029
0.041250101
0.33410491
0.054055056
0.30875059
0.061540138
0.28325682
0.050915379
0.26243428
0.021219916
0.24261412
0.00089316779
0.2205693
0.010306774
0.18701405
0.045508194
0.15116643
0.051760936
0.065432971
-0.051873573
0.092002889
-0.056160865
0.12213838
-0.061652911
0.15269035
-0.062277398
0.18332173
-0.062082312
0.21332367
-0.059447261
0.24110139
-0.052797841
0.26506389
-0.043661795
0.28542128
-0.035372188
0.30200909
-0.026439319
0.31481299
-0.018337679
0.32462651
-0.012465137
0.33229442
-0.0080860315
0.33833998
-0.0044961873
0.34337356
-0.0026701459
0.34751649
-0.0012363584
0.3508892
-0.00068529987
0.35372457
-0.00060666332
0.35619648
-0.0011103746
0.35833918
-0.0016243969
0.36042504
-0.0023738358
0.36255502
-0.0028589389
0.36475858
-0.0028469624
0.36669392
-0.00073113456
0.36809411
0.0023420705
0.36912492
0.0049118798
0.36962815
0.0078749722
0.36945361
0.011182995
0.36829113
0.015385275
0.36551349
0.021106172
0.35984384
0.029224555
0.34932916
0.039687664
0.33218424
0.049805082
0.31035923
0.051618256
0.28900176
0.037113365
0.26832547
0.015553773
0.24404252
0.012547
0.20928651
0.042228768
0.16560083
0.057944704
0.036955743
-0.010858603
-0.079104047
0.016789018
-0.083304108
0.047409607
-0.090775149
0.07651173
-0.088513681
0.1058296
-0.089053961
0.13510267
-0.087622416
0.16293134
-0.083123258
0.18959361
-0.078965174
0.21468
-0.073235474
0.23801123
-0.0674348
0.25959461
-0.06170843
0.27940156
-0.05577854
0.29723732
-0.050016066
0.31331674
-0.044605608
0.32734958
-0.038866914
0.33966096
-0.033551293
0.34993034
-0.027768389
0.35837242
-0.022434008
0.36473736
-0.016347335
0.36901641
-0.010714197
0.37119528
-0.0043927237
0.37150932
0.0013257858
0.37043894
0.0068938645
0.36852129
0.01074135
0.36649026
0.011934403
0.36453048
0.013311658
0.36264451
0.01595143
0.36110011
0.019003518
0.3602884
0.023433919
0.36064212
0.029935884
0.36243977
0.039476648
0.36451965
0.051978373
0.3635829
0.062476401
0.35690138
0.057595409
0.34384989
0.034302297
0.32456946
0.020200812
0.29717459
0.037762612
0.25381951
0.088917416
0.20637395
0.099650908
0.062631484
-0.077545213
0.089316336
-0.08284249
0.12047245
-0.092805774
0.15156154
-0.093366016
0.18276204
-0.093283337
0.21357201
-0.090256115
0.24202662
-0.081252006
0.26682852
-0.068463238
0.28754968
-0.056093222
0.30433525
-0.04322486
0.31738636
-0.031388665
0.3270988
-0.02217723
0.33410414
-0.015090645
0.33900297
-0.0093940312
0.34231619
-0.0059821073
0.34463733
-0.0035560889
0.34629495
-0.0023414097
0.34762525
-0.0019356086
0.34880649
-0.0022905419
0.34997835
-0.0027958377
0.35132036
-0.0037163526
0.35273523
-0.004274497
0.35389397
-0.0040086876
0.3544241
-0.0012641093
0.35415355
0.0026109275
0.35345556
0.0056083904
0.35255124
0.0087826829
0.35166737
0.012071673
0.35117946
0.015865809
0.35153613
0.020755044
0.35327138
0.027495093
0.35629783
0.036652296
0.35903496
0.047072392
0.35825108
0.052402261
0.35174131
0.043588493
0.33866481
0.028653866
0.31722941
0.033973588
0.27948095
0.080049374
0.22711031
0.11025789
0.034220777
-0.0075096714
-0.10581493
0.020476434
-0.11129246
0.051947608
-0.12225029
0.081381374
-0.11795316
0.11103252
-0.11870374
0.1406218
-0.11720906
0.16869585
-0.11119577
0.19552925
-0.10579449
0.22102336
-0.098730088
0.24482467
-0.091238181
0.26705202
-0.083938164
0.28760155
-0.076329718
0.30640845
-0.068823082
0.32345062
-0.061646392
0.33884943
-0.054263131
0.3523619
-0.047060462
0.36406749
-0.039470454
0.3737469
-0.032109544
0.38157148
-0.024167694
0.38734882
-0.016485998
0.39109026
-0.008127067
0.39289019
-0.00046440133
0.39276919
0.0070270512
0.39118741
0.012337026
0.38877682
0.014358922
0.38581596
0.016286339
0.38216403
0.019616656
0.37793408
0.023245432
0.37329585
0.028075338
0.36861525
0.034614333
0.36483609
0.043281213
0.36304857
0.053783818
0.36308176
0.062461042
0.36166818
0.059016633
0.35578858
0.040223397
0.34632879
0.029689812
0.33369587
0.050440343
0.30380645
0.11887537
0.25671693
0.14721912
0.060461251
-0.10378301
0.087467944
-0.10984573
0.11952895
-0.12486682
0.15134239
-0.12517915
0.18326902
-0.1252091
0.2149887
-0.12197602
0.24460601
-0.11086829
0.27046717
-0.094323598
0.29239377
-0.078019363
0.31072753
-0.0615584
0.32549998
-0.046160932
0.33716747
-0.033844513
0.34628951
-0.024212342
0.35335888
-0.016463322
0.35892871
-0.011551815
0.36322141
-0.0078490976
0.366771
-0.0058912609
0.36973908
-0.0049044414
0.37241714
-0.0049695
0.37491559
-0.0052960131
0.37733632
-0.0061394551
0.37971609
-0.0066575395
0.38191843
-0.0062149523
0.3834409
-0.0027916423
0.38384015
0.002205482
0.38315494
0.00628735
0.3814259
0.010509106
0.3787281
0.014771108
0.37516038
0.0194288
0.37100251
0.024916329
0.36671211
0.031786782
0.36313511
0.040229339
0.36111803
0.04909916
0.35991106
0.053624041
0.35675185
0.046774733
0.35006544
0.035342992
0.34114717
0.042884023
0.31989234
0.10134978
0.27727865
0.15270227
0.032067976
-0.0043970506
-0.1334869
0.024373729
-0.14006497
0.05702527
-0.15490631
0.087109285
-0.14803633
0.1173996
-0.14899521
0.14767171
-0.14747776
0.17620794
-0.13972724
0.20349571
-0.133082
0.22951106
-0.12474565
0.25372554
-0.11545449
0.27642592
-0.1066409
0.29748209
-0.097387536
0.31698472
-0.088326647
0.33472133
-0.079383335
0.35068787
-0.070230141
0.36483639
-0.061209863
0.37715276
-0.051788487
0.38757459
-0.042533659
0.39585357
-0.032449615
0.40211896
-0.022754113
0.40622493
-0.012235898
0.40826578
-0.0025073304
0.40850157
0.0067890653
0.40729866
0.013537049
0.40524046
0.016415031
0.40257004
0.018957823
0.39918804
0.023004074
0.39511027
0.027332214
0.39035293
0.032825488
0.38503558
0.039919096
0.37941438
0.04893198
0.37398303
0.059214814
0.36922171
0.067219241
0.36389057
0.064343147
0.35594793
0.04819908
0.34584884
0.039808824
0.33763905
0.058720059
0.32352074
0.13304243
0.28767329
0.18340737
0.059201018
-0.13091419
0.087001297
-0.13764632
0.12043645
-0.15830118
0.15344843
-0.15819178
0.18653477
-0.15829596
0.21954936
-0.1549889
0.25036356
-0.14168152
0.27718599
-0.12114538
0.30006254
-0.10089575
0.31939797
-0.080893916
0.33501357
-0.061776495
0.34760574
-0.046436158
0.35765889
-0.034264649
0.36551685
-0.024319908
0.37172876
-0.017762314
0.37666175
-0.012780368
0.38057153
-0.0097995011
0.38373932
-0.0080706693
0.38646478
-0.0076938182
0.38891083
-0.0077413541
0.39114633
-0.0083748508
0.39320114
-0.0087125078
0.39496146
-0.0079770486
0.39601397
-0.0038456191
0.3960814
0.0021375281
0.39530706
0.0070618403
0.39375966
0.012061014
0.3914977
0.017039123
0.38852886
0.022388189
0.3849202
0.028527055
0.38075808
0.035955102
0.37623895
0.044736032
0.37166441
0.053677679
0.36690791
0.058381447
0.36076343
0.052874874
0.35204742
0.044085734
0.34326742
0.051647625
0.33179669
0.11289715
0.30248281
0.18198808
0.030304375
-0.0014719684
-0.16232115
0.028375495
-0.1699148
0.062456894
-0.18898928
0.09348846
-0.17907025
0.12464615
-0.18014866
0.15580124
-0.17863068
0.18491351
-0.16883752
0.21278639
-0.1609523
0.23921554
-0.15117586
0.26386793
-0.14010931
0.2870599
-0.12983546
0.30862244
-0.11895169
0.3286123
-0.10831683
0.34701637
-0.097786562
0.36366847
-0.086880524
0.37870416
-0.076243522
0.39180202
-0.064883869
0.402956
-0.053685094
0.41218396
-0.041674052
0.41929044
-0.029856117
0.42424612
-0.017184905
0.42718276
-0.0054350271
0.42820018
0.0057835791
0.42763536
0.014115783
0.42600189
0.018064078
0.42359649
0.021380361
0.42037665
0.026242661
0.41636047
0.03136743
0.41161068
0.037585356
0.40621444
0.045315997
0.40039563
0.054774028
0.39422403
0.065402298
0.38770414
0.073754443
0.37987758
0.072178731
0.36948918
0.058634768
0.35655986
0.052781571
0.34373004
0.071598712
0.33113731
0.14571011
0.30059708
0.21432578
0.058556822
-0.15916681
0.087380982
-0.16647029
0.12238573
-0.19330778
0.15674185
-0.19254821
0.1911619
-0.19271521
0.22559499
-0.18942185
0.2577652
-0.17385033
0.2857032
-0.1490824
0.30954022
-0.12473233
0.32973817
-0.10109178
0.3462297
-0.078267872
0.35962037
-0.05982633
0.37054009
-0.045183637
0.37939854
-0.03317735
0.38659062
-0.024953628
0.39246956
-0.018658587
0.39728136
-0.01461113
0.40138853
-0.012177922
0.40493959
-0.011245702
0.40813512
-0.010938303
0.41109087
-0.011332863
0.41380263
-0.011427305
0.41616338
-0.010341681
0.41792988
-0.0056169531
0.41864143
0.001420184
0.41829489
0.0074027176
0.41700215
0.01335137
0.41474533
0.019299081
0.41159023
0.025542612
0.40764718
0.032477601
0.40305166
0.040556156
0.39793764
0.049850243
0.39237463
0.059245261
0.38606471
0.064697031
0.37789285
0.061065519
0.36703543
0.054951275
0.35398316
0.064704511
0.34026595
0.12662738
0.31279303
0.20931999
0.028883062
0.0012872184
-0.19249053
0.032429993
-0.2010625
0.068134043
-0.22469576
0.10034549
-0.21127886
0.1325994
-0.2124031
0.16479291
-0.21081932
0.19474654
-0.19878784
0.22325733
-0.18946283
0.25029336
-0.17821263
0.27544489
-0.16526317
0.29905855
-0.15345146
0.32115215
-0.14104701
0.34162833
-0.12879383
0.36055229
-0.11671101
0.37786929
-0.10419813
0.39341567
-0.091791002
0.40721739
-0.078687453
0.41910381
-0.065574002
0.42899869
-0.051572102
0.43677963
-0.037640341
0.44240702
-0.022815934
0.44588683
-0.0089181958
0.44749416
0.0041723097
0.44741869
0.014186184
0.4461694
0.019308677
0.44402977
0.023516813
0.44101067
0.029262315
0.43713795
0.035243332
0.43252611
0.042181808
0.42725558
0.050571705
0.4215527
0.060509016
0.41552727
0.071423622
0.4090167
0.080263059
0.40086153
0.080324945
0.38982088
0.069704353
0.37600117
0.066607883
0.35987122
0.08779623
0.34281719
0.16280226
0.31148212
0.24589815
0.058422013
-0.18870534
0.088452687
-0.19650205
0.12524713
-0.23010233
0.1612133
-0.22851563
0.19723904
-0.22874163
0.23328029
-0.22546141
0.26694807
-0.20751679
0.29609266
-0.17822604
0.32090247
-0.14954195
0.34188742
-0.12207702
0.35916397
-0.095544482
0.37325885
-0.073920945
0.38490748
-0.056831257
0.39451916
-0.042787866
0.40246571
-0.032898556
0.40903421
-0.025225718
0.4145792
-0.020154558
0.41926787
-0.01686552
0.423317
-0.015293717
0.42686329
-0.014484288
0.43003775
-0.014506872
0.43283506
-0.014225132
0.43522271
-0.012730243
0.43685348
-0.0072491656
0.437537
0.00073648324
0.43720969
0.0077305806
0.43593922
0.01462612
0.43380783
0.021438174
0.43081679
0.028518467
0.42711741
0.036174788
0.42278047
0.044893824
0.41797687
0.054639766
0.41273003
0.064497946
0.40653172
0.070899322
0.39825958
0.069294659
0.38706572
0.066171179
0.37247484
0.079267092
0.35509969
0.14407746
0.32550562
0.23891342
0.027726972
0.0039232825
-0.22414407
0.036524267
-0.23366457
0.074036687
-0.26220873
0.1075902
-0.24483401
0.14113798
-0.24594455
0.17453882
-0.2442183
0.20542668
-0.22967299
0.23481032
-0.21884533
0.26249715
-0.20590106
0.28821136
-0.19097999
0.31239199
-0.17763445
0.3349442
-0.16360062
0.35588208
-0.14973208
0.37531789
-0.13614638
0.39315863
-0.12203808
0.40932478
-0.10795601
0.42375394
-0.093115521
0.43632791
-0.078146324
0.44688356
-0.062125675
0.45535417
-0.046107332
0.46171079
-0.029167371
0.46591293
-0.013112438
0.4681233
0.0019723146
0.4686536
0.013668818
0.4678414
0.020135905
0.46600371
0.025372489
0.46320683
0.03208033
0.45945749
0.039015574
0.45483991
0.046814196
0.44953574
0.055878083
0.44371011
0.066353477
0.43754515
0.07759711
0.4308704
0.086949787
0.42264987
0.088555793
0.41146571
0.080936031
0.39749492
0.080628428
0.3806488
0.10468795
0.36052415
0.18299868
0.32763919
0.27905693
0.058711205
-0.21968959
0.09013627
-0.22792684
0.12883663
-0.26880479
0.1665578
-0.26623791
0.20432652
-0.26651002
0.24217378
-0.26330814
0.27747576
-0.24281721
0.30787246
-0.20862157
0.33374614
-0.17541527
0.35566463
-0.14399556
0.37359103
-0.11347098
0.38830198
-0.088631499
0.40055921
-0.06908762
0.41078978
-0.053017185
0.41929901
-0.041406474
0.42657746
-0.032503005
0.43272269
-0.026299012
0.43802784
-0.022170314
0.44263309
-0.019899312
0.44671379
-0.018565934
0.45032918
-0.018124038
0.45357606
-0.017474541
0.45634531
-0.015502836
0.45841423
-0.0093224059
0.45950091
-0.00035513736
0.45954032
0.0076861374
0.45855438
0.015610307
0.45658846
0.02340783
0.45363492
0.031474114
0.44982596
0.039994773
0.44531449
0.049415218
0.44022517
0.059730314
0.43466168
0.07006096
0.42819566
0.077363688
0.41966481
0.077836272
0.40824839
0.077599791
0.3935009
0.094025706
0.37458913
0.16297322
0.34408865
0.26930869
0.026814845
0.006465033
-0.2574236
0.040672579
-0.26787479
0.080129311
-0.30166696
0.1151892
-0.27988892
0.15020449
-0.2809594
0.18500001
-0.27900808
0.21704142
-0.2617127
0.247347
-0.24915076
0.27589639
-0.23445194
0.30225081
-0.2173367
0.32693801
-0.20232373
0.35000057
-0.18666449
0.37143527
-0.17116744
0.39135121
-0.15606277
0.40969905
-0.14038645
0.42644908
-0.12470716
0.44145571
-0.10812368
0.45460959
-0.091302505
0.46580406
-0.073322749
0.47490832
-0.055214714
0.48190408
-0.036166336
0.48676562
-0.017977528
0.48958786
-0.0008540323
0.49063714
0.012613983
0.49028495
0.020482276
0.48878375
0.026867762
0.48619843
0.034662082
0.48259784
0.04261127
0.4780819
0.051308893
0.47276115
0.061176147
0.46685916
0.072289274
0.46049884
0.083959494
0.4535585
0.093888737
0.44503024
0.097067427
0.43361924
0.092372329
0.4193561
0.094878726
0.40245352
0.12165342
0.38143144
0.2040473
0.34825334
0.31238015
0.059365165
-0.25223874
0.092312766
-0.26087578
0.13309282
-0.30958623
0.17278857
-0.30593517
0.21244954
-0.30617172
0.25222182
-0.3030791
0.28924215
-0.27983575
0.32112658
-0.24050468
0.34809611
-0.20238446
0.37089666
-0.16679643
0.38956396
-0.1321387
0.40484239
-0.10390979
0.4176212
-0.081865875
0.42837308
-0.063767868
0.43746804
-0.05050027
0.44525077
-0.040284342
0.45204739
-0.033094678
0.45788468
-0.028006617
0.46300135
-0.025015602
0.4675454
-0.023109628
0.47160458
-0.022183466
0.47511662
-0.020986979
0.47811722
-0.018504754
0.48037737
-0.011583972
0.48165793
-0.0016364687
0.48181959
0.0075241138
0.48096868
0.016464966
0.47908467
0.025297183
0.4762459
0.034295445
0.47251894
0.043713089
0.46802093
0.053906863
0.46289829
0.064835221
0.45717215
0.075795338
0.45046972
0.084075991
0.44170012
0.08656701
0.4299793
0.089340876
0.41505335
0.10891345
0.3959412
0.1821643
0.36598042
0.29928294
0.026090776
0.0089312828
-0.29244608
0.044882829
-0.30382686
0.086437033
-0.34321959
0.12317871
-0.3166305
0.15975216
-0.31752584
0.19610295
-0.31535757
0.2293775
-0.29498457
0.26078499
-0.28055873
0.29026336
-0.2639322
0.31736429
-0.24443991
0.34270905
-0.2276703
0.36635788
-0.2103143
0.38826638
-0.19307623
0.40864414
-0.17644044
0.42752343
-0.15926543
0.44473732
-0.14192081
0.46027711
-0.12366306
0.47399434
-0.10501922
0.48581254
-0.085139664
0.49558534
-0.064985253
0.50317149
-0.043748457
0.50867142
-0.023471369
0.51210999
-0.0042840118
0.51373938
0.010995465
0.5138426
0.02039234
0.51265196
0.028075099
0.51033972
0.036995095
0.50694276
0.046031722
0.50248849
0.055780509
0.49719355
0.066473928
0.49121657
0.07828026
0.48464043
0.090535421
0.47737109
0.10116374
0.4684783
0.10597234
0.45674029
0.10415577
0.4420122
0.1096579
0.42476177
0.13894604
0.40357601
0.22529849
0.37106189
0.34508504
0.06035524
-0.28650434
0.094967643
-0.29548945
0.13796132
-0.35258212
0.17971174
-0.34768754
0.22147155
-0.34793165
0.26330455
-0.34491089
0.30224866
-0.31877802
0.33563511
-0.27388973
0.3638541
-0.23060289
0.38759821
-0.19054084
0.40698921
-0.15153001
0.42286272
-0.11978333
0.43613677
-0.095139181
0.44729153
-0.074921581
0.45684998
-0.060057258
0.46516805
-0.048601228
0.47237886
-0.040304323
0.47873478
-0.034362024
0.48436542
-0.030646032
0.48935305
-0.028097877
0.49374503
-0.026576567
0.49766084
-0.024904818
0.50099216
-0.021838824
0.50355129
-0.014146731
0.50513545
-0.0032250185
0.50562336
0.0070319666
0.50499594
0.017090467
0.50332454
0.026971998
0.50058523
0.037037932
0.49688687
0.047424783
0.49235691
0.058450051
0.48706453
0.070130717
0.48110637
0.081750082
0.47407272
0.091102171
0.46492621
0.095716753
0.4527727
0.10150868
0.4374362
0.124264
0.41825738
0.20131169
0.38924354
0.32822044
0.025551887
0.011347307
-0.32934688
0.049169067
-0.34164961
0.092956876
-0.38700719
0.13149598
-0.35516425
0.16984181
-0.35587092
0.20786608
-0.35337653
0.24251704
-0.3296354
0.27517097
-0.31321273
0.30568945
-0.2944523
0.3336644
-0.27241667
0.35972116
-0.25372845
0.38391931
-0.23451325
0.40639811
-0.21555547
0.42733226
-0.19737482
0.44662217
-0.17855589
0.46435817
-0.15965752
0.48041243
-0.13971869
0.49469538
-0.11930365
0.5070452
-0.097491666
0.51739295
-0.075335038
0.52561236
-0.051970631
0.53167588
-0.029537308
0.53569416
-0.0083061812
0.53785759
0.0088277751
0.53842254
0.019821233
0.5376471
0.028844693
0.53560888
0.039026393
0.53236943
0.049261811
0.52807328
0.060050313
0.52277635
0.071739596
0.51673208
0.084363208
0.51000008
0.097278485
0.50244043
0.10872793
0.49317922
0.11520881
0.48105647
0.11630028
0.46588336
0.12480188
0.44803327
0.15685113
0.4267023
0.24664658
0.39504375
0.37683748
0.061626906
-0.3225803
0.098041437
-0.33190576
0.14339477
-0.39793798
0.1873811
-0.39167536
0.23132119
-0.3918721
0.27539868
-0.3889873
0.31637497
-0.35975205
0.35142953
-0.30894244
0.38091839
-0.26009109
0.40575925
-0.215382
0.42590958
-0.17168102
0.4423176
-0.13619168
0.45604767
-0.10886899
0.46766465
-0.086537816
0.47763553
-0.070027126
0.4863077
-0.057272393
0.4939824
-0.047978172
0.50076804
-0.04114714
0.50681342
-0.036691161
0.51222719
-0.033511787
0.51708388
-0.031433616
0.52135325
-0.029175133
0.52494962
-0.025436573
0.52782175
-0.017020885
0.52967404
-0.0050789252
0.53039762
0.0063069313
0.52999867
0.017490466
0.52847658
0.028497031
0.52587484
0.039620302
0.52223689
0.051048415
0.51767853
0.062995496
0.51233407
0.07545175
0.50617789
0.087915671
0.49886832
0.098426609
0.48937989
0.1051764
0.476866
0.11403766
0.46100778
0.14007682
0.44162115
0.22078215
0.41353253
0.35632995
0.025156531
0.013727669
-0.36823268
0.053550121
-0.38147231
0.099704491
-0.43315941
0.14019304
-0.39565192
0.18040546
-0.39607696
0.22023787
-0.39320842
0.25647181
-0.36586717
0.29044281
-0.34718507
0.32213608
-0.32614718
0.351049
-0.30133117
0.37792495
-0.28060546
0.40285511
-0.25944395
0.42586774
-0.23856823
0.4472955
-0.21880262
0.46712799
-0.19838839
0.4853518
-0.1778815
0.50187561
-0.1562426
0.51663556
-0.13406365
0.52951817
-0.11037371
0.54042273
-0.086238265
0.54922775
-0.06077283
0.55589358
-0.036198667
0.5604806
-0.012886633
0.56316123
0.0061558025
0.56417169
0.018821653
0.56377083
0.029259933
0.5620265
0.040789091
0.55903612
0.052274116
0.55484951
0.064253592
0.54962153
0.076971316
0.54352524
0.090469111
0.5366134
0.10418166
0.52879113
0.11654898
0.51917731
0.12483427
0.50669554
0.1288255
0.49109599
0.14045023
0.47261814
0.17536967
0.4509325
0.26838996
0.42010056
0.4077993
0.063175249
-0.36060072
0.10149216
-0.3702248
0.14936147
-0.44580932
0.19569907
-0.43801506
0.24200246
-0.43817572
0.28845997
-0.4354429
0.33161371
-0.40290365
0.368442
-0.3457689
0.39936981
-0.29101827
0.42530386
-0.2413164
0.44623364
-0.19261156
0.46324166
-0.15320003
0.47748351
-0.12311067
0.48942833
-0.098481726
0.49973785
-0.080335645
0.50880714
-0.066340403
0.51681201
-0.055982149
0.52400309
-0.048337371
0.53046528
-0.043153163
0.53627024
-0.039316824
0.5414936
-0.036657912
0.54609188
-0.033774874
0.55006317
-0.029410296
0.55323198
-0.020192903
0.55539501
-0.0072459593
0.55640678
0.0052908632
0.55624498
0.017650025
0.55494754
0.029795867
0.55245798
0.042112704
0.54891126
0.054607656
0.54435761
0.067563937
0.53890008
0.080914088
0.5325659
0.09424598
0.52493962
0.10604212
0.51512641
0.11498615
0.5022365
0.12694216
0.48590605
0.15642137
0.4662766
0.24037586
0.4389868
0.38356279
0.024907529
0.016092869
-0.40923537
0.058040526
-0.42341956
0.10669983
-0.4818177
0.14928096
-0.43822812
0.19152085
-0.4383163
0.23330667
-0.43499004
0.2711889
-0.40375019
0.30664733
-0.38264383
0.33959406
-0.35909528
0.36956616
-0.3313044
0.39733572
-0.30837574
0.42300437
-0.28511296
0.44670128
-0.26226528
0.46870696
-0.24080851
0.4890355
-0.2187172
0.5077144
-0.19656108
0.52473001
-0.17325895
0.54000616
-0.14934104
0.55340011
-0.12376878
0.56477795
-0.097617727
0.57412256
-0.070118817
0.5813152
-0.043393284
0.58643467
-0.018008279
0.5896399
0.0029470185
0.59116105
0.017296291
0.59113034
0.0292851
0.5897127
0.042199973
0.58693788
0.055038027
0.58290007
0.068263992
0.57774346
0.082095629
0.57162698
0.096622081
0.56456981
0.11125929
0.55645108
0.12468091
0.54649052
0.13476521
0.53366457
0.14166853
0.51765224
0.15642176
0.49865359
0.1944149
0.47655296
0.29050289
0.44644912
0.43795551
0.064972998
-0.40066811
0.10534931
-0.41060305
0.15585838
-0.49632142
0.20474899
-0.48690695
0.25351552
-0.48694222
0.30248046
-0.48440683
0.34796583
-0.44838624
0.38667983
-0.38448064
0.41911358
-0.32345104
0.44623965
-0.26844301
0.46808451
-0.21445741
0.48573574
-0.17085214
0.50038791
-0.13776294
0.51275588
-0.11084938
0.52333658
-0.090915484
0.53268646
-0.075689551
0.54103423
-0.064329132
0.54859125
-0.055894067
0.55540589
-0.049967631
0.56157362
-0.045484866
0.5671366
-0.042221465
0.57209404
-0.038733449
0.57639133
-0.033709248
0.57989866
-0.023702643
0.58235264
-0.0097024515
0.58365083
0.0039898481
0.58374339
0.017556172
0.58261848
0.030920355
0.58030344
0.044409017
0.5768478
0.058047448
0.57232072
0.072072427
0.56680723
0.086402848
0.56028227
0.10077946
0.55239138
0.11395181
0.54223549
0.1251237
0.52901675
0.14016865
0.51226179
0.17312784
0.49233638
0.26038177
0.46581758
0.41010338
0.024777413
0.018458171
-0.45247194
0.062657812
-0.46761929
0.11398652
-0.53314358
0.1587768
-0.48301714
0.20315527
-0.48268951
0.24702572
-0.47886048
0.28670776
-0.44343101
0.32376358
-0.41970135
0.35810418
-0.39343717
0.38922599
-0.36242719
0.41800701
-0.33715728
0.44450097
-0.31160706
0.46889777
-0.28666214
0.49152075
-0.26343147
0.51233752
-0.23953421
0.53154499
-0.21576874
0.54904701
-0.19076145
0.56478161
-0.16507578
0.57867054
-0.13765775
0.59058404
-0.10953035
0.60041375
-0.079946815
0.60813422
-0.051110455
0.61378187
-0.023651238
0.61746354
-0.00072795965
0.61941466
0.015353711
0.6197765
0.028934925
0.61869715
0.043294857
0.61618999
0.057563782
0.61232122
0.072147829
0.6072407
0.087180566
0.6010892
0.10277949
0.59390245
0.11843182
0.58550027
0.13307582
0.57522683
0.14504732
0.56206147
0.15487151
0.54565569
0.17287227
0.52611526
0.2139955
0.50368534
0.31298218
0.47425779
0.46746783
0.06703482
-0.44292729
0.10955227
-0.45312312
0.16287449
-0.54964562
0.21439757
-0.53843209
0.26586723
-0.53841208
0.31748977
-0.53602683
0.3654107
-0.4963046
0.40617732
-0.42524516
0.44020211
-0.35747526
0.46862804
-0.29686959
0.49138312
-0.23721364
0.5096768
-0.18914661
0.52485767
-0.15294393
0.53755495
-0.12354623
0.54847412
-0.10183382
0.55812787
-0.085342445
0.56675345
-0.072953803
0.57455027
-0.063690315
0.58167591
-0.057092836
0.58819715
-0.052006263
0.59409202
-0.048116874
0.59938239
-0.044025238
0.60401234
-0.038341342
0.60782968
-0.02752316
0.61059636
-0.012473178
0.61218754
0.0023940379
0.61254696
0.017193433
0.61166438
0.031801933
0.60952368
0.046550711
0.60617438
0.06140652
0.60167037
0.076589269
0.59607892
0.092000508
0.58939202
0.10746339
0.58122982
0.12210277
0.57075831
0.13558684
0.55719488
0.15374434
0.54006811
0.19026809
0.51994339
0.28047493
0.49413977
0.43586254
0.024760555
0.020833397
-0.49806759
0.067426113
-0.51421
0.12155567
-0.58727145
0.16869874
-0.53015592
0.21537562
-0.52936596
0.2614902
-0.52497208
0.30307594
-0.48501811
0.34182742
-0.45845341
0.3777129
-0.42932386
0.41011685
-0.39483188
0.43995611
-0.36699684
0.46736958
-0.33902062
0.49250032
-0.31179289
0.5157766
-0.28670784
0.53724586
-0.26100372
0.5569625
-0.2354858
0.5749563
-0.20875585
0.59114492
-0.18126507
0.60544741
-0.15196106
0.61782172
-0.12190539
0.62815411
-0.090280093
0.63632911
-0.059286264
0.64246221
-0.029785712
0.64662639
-0.0048938946
0.64902344
0.012953824
0.64981412
0.028140839
0.64902937
0.044074275
0.64678687
0.059796826
0.64313991
0.075772617
0.63815159
0.09213974
0.63199906
0.10896452
0.62466787
0.1257904
0.616051
0.14171099
0.60544346
0.15562271
0.59192458
0.16840475
0.57513839
0.18960907
0.55516023
0.23400753
0.53237945
0.33577077
0.50367048
0.49620237
0.069321072
-0.48749006
0.11415165
-0.49795572
0.17041162
-0.60590875
0.22478185
-0.59280345
0.27902683
-0.59265661
0.33347371
-0.59047258
0.3840003
-0.54682803
0.42687116
-0.46811356
0.46266449
-0.39326791
0.49245774
-0.32666365
0.51624169
-0.26099917
0.53525996
-0.208166
0.550919
-0.16860356
0.564032
-0.13665893
0.57519571
-0.11299709
0.58510528
-0.095251179
0.59395493
-0.08180296
0.60201538
-0.071750239
0.60941015
-0.064487632
0.6162061
-0.05880239
0.62242898
-0.054340531
0.62806311
-0.049660479
0.63302261
-0.043302733
0.63713383
-0.031636971
0.64024553
-0.015588036
0.64213002
0.00050560398
0.6427618
0.016558959
0.64209723
0.032462782
0.64014295
0.048490457
0.63689909
0.064635234
0.63245211
0.081018097
0.62683346
0.097595415
0.61996742
0.11433577
0.61156773
0.13052524
0.60079816
0.14635033
0.58690793
0.16763722
0.5694396
0.20768855
0.54909406
0.30089666
0.52403868
0.46094101
0.024857059
0.023234069
-0.54615866
0.072337508
-0.56331305
0.12945032
-0.64438113
0.17906528
-0.57976929
0.22819206
-0.57848845
0.27667695
-0.57345741
0.32030455
-0.52864524
0.36093129
-0.49908197
0.39841698
-0.46681064
0.43216292
-0.42857839
0.46318402
-0.39801816
0.49160911
-0.36744571
0.51762049
-0.3378042
0.54160692
-0.31069438
0.56366634
-0.28306326
0.58393039
-0.25575029
0.60241175
-0.22723752
0.61907431
-0.19792811
0.6338852
-0.16677193
0.64669655
-0.13471647
0.65744949
-0.10103168
0.66611497
-0.067949598
0.67267744
-0.036344522
0.67727341
-0.0094849699
0.68008608
0.01014804
0.68125641
0.026979845
0.68083965
0.044503718
0.67887258
0.061779518
0.67541155
0.079246267
0.6705383
0.097018725
0.66440383
0.11510299
0.65698131
0.13319853
0.64810152
0.15057951
0.6371804
0.16654781
0.62335377
0.18226095
0.60623316
0.20676549
0.58580182
0.25447911
0.56273273
0.35888095
0.53474182
0.52424832
0.07184935
-0.53448378
0.11909982
-0.54520884
0.1784962
-0.66530699
0.23582519
-0.6501343
0.29304676
-0.64987826
0.35047793
-0.6479008
0.40375096
-0.60009836
0.44891451
-0.51327531
0.48652183
-0.43087499
0.51774905
-0.35789208
0.54262128
-0.28587278
0.56238892
-0.22793473
0.57866892
-0.18488384
0.5921015
-0.1500913
0.60362999
-0.124525
0.61370701
-0.10532752
0.62280574
-0.090901056
0.63106174
-0.080005695
0.63870043
-0.072126084
0.64576575
-0.065867712
0.65224121
-0.060816628
0.65816619
-0.055586651
0.66344383
-0.048582603
0.66794514
-0.036141404
0.67133515
-0.018982404
0.67351438
-0.0016787305
0.67442088
0.015647947
0.67399928
0.032880986
0.67224386
0.050244813
0.66915376
0.067730741
0.66476332
0.085417541
0.65908399
0.10327987
0.65210695
0.12131142
0.64345379
0.13916838
0.63240351
0.15739116
0.61821214
0.18183762
0.600421
0.22549226