/*--------------------------------*- C++ -*----------------------------------*\
| =========                 |                                                 |
| \\      /  F ield         | OpenFOAM: The Open Source CFD Toolbox           |
|  \\    /   O peration     | Version:  2406                                  |
|   \\  /    A nd           | Website:  www.openfoam.com                      |
|    \\/     M anipulation  |                                                 |
\*---------------------------------------------------------------------------*/
FoamFile
{
    version     2.0;
    format      ascii;
    arch        "LSB;label=32;scalar=64";
    class       surfaceScalarField;
    location    "100";
    object      phi;
}
// * * * * * * * * * * * * * * * * * * * * * * * * * * * * * * * * * * * * * //

dimensions      [0 3 -1 0 0 0 0];

oriented        oriented;

internalField   nonuniform List<scalar> 
39940
(
0.75669944
-0.0055396292
0.76955899
-0.01867801
0.79322394
-0.038488891
0.82762351
-0.061641071
0.87251369
-0.088006934
0.92735985
-0.11766108
0.99149863
-0.15058155
1.0641675
-0.18691022
1.144906
-0.22693131
1.2335467
-0.27108532
1.3301612
-0.31929383
1.4344003
-0.37027336
1.5449362
-0.4209791
1.659009
-0.46694009
1.7726045
-0.50335558
1.8810349
-0.52623602
1.979582
-0.53334341
2.0641602
-0.52418349
2.1315014
-0.49991808
2.1793694
-0.46252189
2.2061936
-0.41442586
2.2110265
-0.35804693
2.1931811
-0.2952966
2.1517945
-0.22800241
2.0860012
-0.15762536
1.9952308
-0.078199691
1.8749675
0.0082789452
1.7320633
0.10076672
1.5921045
0.27233485
1.3913319
0.5511362
1.0157096
0.79593063
0.44501455
0.77994153
-0.28577632
0.47002274
-0.81075815
0.22123695
-1.1312526
0.0011118067
-1.3429692
-0.12970506
-1.5086425
-0.20621827
-1.6237882
-0.28526721
-1.7069783
-0.34682293
-1.7719486
-0.40340927
-1.8129412
-0.47613143
-1.8426007
-0.5410506
-1.8790871
-0.59088913
-1.9167684
-0.64655393
-1.948959
-0.70599119
-1.9683274
-0.76686643
-1.9699838
-0.8245603
-1.9517846
-0.87492989
-1.9140142
-0.91535981
-1.8585911
-0.94428203
-1.7886718
-0.96159434
-1.7077128
-0.96787359
-1.6194437
-0.96476767
-1.5270085
-0.95375586
-1.4333027
-0.93680478
-1.3403689
-0.91516264
-1.2500489
-0.89030863
-1.1633917
-0.86303999
-1.0813212
-0.83447131
-1.004132
-0.80513085
-0.93219484
-0.77583158
-0.8654724
-0.74676012
-0.80407225
-0.71833166
-0.74773964
-0.69049852
-0.69635339
-0.66352999
-0.64950703
-0.63732921
-0.60698148
-0.61207123
-0.56839889
-0.58763685
-0.53355127
-0.56413536
-0.50204873
-0.54144395
-0.47362758
-0.51962802
-0.44794055
-0.49862247
-0.42478624
-0.47850701
-0.40389364
-0.45923753
-0.38510383
-0.44084316
-0.36823301
-0.4231695
-0.35324085
-0.40608235
-0.34023275
-0.3893521
-0.32955866
-0.37254898
-0.32188246
-0.35516529
-0.31810362
-0.33708297
-0.31881405
-0.31935518
-0.3236855
-0.30401012
-0.3315397
-0.29240874
-0.34103192
-0.28446213
-0.35133927
-0.27920091
-0.36239626
-0.27558268
-0.37496301
-0.27315409
-0.39005076
-0.27192539
-0.40818409
-0.27229161
-0.42837344
-0.27384559
-0.44719792
-0.2743019
-0.45898451
-0.26912973
-0.45819528
-0.25120428
-0.44231786
-0.21492178
-0.4118897
-0.16566084
-0.37037471
-0.11635565
-0.32283573
-0.074737752
-0.27365532
-0.037876593
-0.0098254487
0.75416498
-0.010065344
0.76459226
-0.02997555
0.7857613
-0.05980178
0.81800178
-0.09337255
0.86118539
-0.13025389
0.91497673
-0.17018345
0.97887032
-0.21305728
1.0525548
-0.25904756
1.1360136
-0.30881986
1.2295783
-0.36306507
1.3335184
-0.42171562
1.4474507
-0.4827999
1.5696031
-0.54187932
1.6964028
-0.59271634
1.822804
-0.6289477
1.9430251
-0.64595533
2.0515852
-0.64165871
2.1438651
-0.61656683
2.2165428
-0.572968
2.2674557
-0.51413273
2.2954811
-0.44337555
2.3001923
-0.36406297
2.282169
-0.27891098
2.2422844
-0.19036816
2.1810493
-0.099124019
2.097064
0.0027061394
1.9804677
0.12186646
1.8227048
0.25546637
1.6481202
0.44420584
1.4598472
0.73749833
1.2446712
1.0087642
0.97773263
1.0436999
0.65796549
0.78604475
0.34122002
0.53403173
-0.091739762
0.43083062
-0.54549241
0.32173788
-0.91346498
0.15946388
-1.1937477
-0.0063280182
-1.3754128
-0.16586839
-1.4747147
-0.30482796
-1.5193448
-0.4313237
-1.5423527
-0.51799594
-1.5844418
-0.548745
-1.6309762
-0.60067141
-1.6730686
-0.66492961
-1.7003363
-0.74053791
-1.7074865
-0.81832383
-1.6934562
-0.89018582
-1.6594241
-0.95057028
-1.6082872
-0.99657144
-1.5434524
-1.0270047
-1.4689378
-1.0426644
-1.3882088
-1.0450713
-1.3045586
-1.0367737
-1.2202583
-1.0199378
-1.1374147
-0.99684971
-1.0572931
-0.96896562
-0.98104368
-0.93800675
-0.90908038
-0.90501452
-0.84189426
-0.87117952
-0.7795043
-0.83706337
-0.72207711
-0.80335688
-0.66940649
-0.7702186
-0.6214359
-0.73801403
-0.57781981
-0.70676797
-0.53838108
-0.67668978
-0.50275482
-0.64770117
-0.47074946
-0.61989817
-0.44203389
-0.59317804
-0.4163937
-0.56760519
-0.39350817
-0.54308775
-0.37318043
-0.51965809
-0.35517992
-0.49725071
-0.33935272
-0.47588091
-0.32554507
-0.45547866
-0.31364014
-0.43592473
-0.30356383
-0.41700752
-0.29538595
-0.39838781
-0.28936077
-0.37946458
-0.28608358
-0.3593728
-0.28651054
-0.33764168
-0.29125905
-0.31560836
-0.29991486
-0.29636454
-0.31116122
-0.28214707
-0.32352705
-0.27308533
-0.33578357
-0.26791537
-0.34715569
-0.26517311
-0.35754273
-0.26368915
-0.36787574
-0.26248864
-0.38015377
-0.26085266
-0.39650293
-0.25827804
-0.41733294
-0.25416481
-0.44024091
-0.24686881
-0.45935267
-0.23271029
-0.46661814
-0.20826383
-0.45814552
-0.17464747
-0.43891828
-0.1357809
-0.41616457
-0.097409823
-0.39141592
-0.062654616
-0.045469923
0.75317562
-0.013957561
0.7629808
-0.040378949
0.7838272
-0.080662965
0.81618659
-0.12514311
0.86003689
-0.17306322
0.91515318
-0.22399942
0.98137529
-0.27780915
1.0587791
-0.33490891
1.1476451
-0.39609246
1.2482666
-0.46209637
1.3608688
-0.53276114
1.4850797
-0.60552281
1.6188769
-0.67430754
1.7579256
-0.73051724
1.8960006
-0.76595388
2.0262458
-0.77529848
2.1423862
-0.75712202
2.2395373
-0.71326091
2.314415
-0.64764165
2.3652116
-0.56496591
2.3912952
-0.46978995
2.3930962
-0.36651752
2.3722506
-0.2591746
2.3307065
-0.15037917
2.269039
-0.039540868
2.1880422
0.081348658
2.0865134
0.22093483
1.9638314
0.37610708
1.8380131
0.5686276
1.7296941
0.84484864
1.6138033
1.1237115
1.4239266
1.2326394
1.0983143
1.1110156
0.73123409
0.90097233
0.43590331
0.72624255
0.15693904
0.60000033
-0.20442913
0.5201419
-0.5907193
0.38066663
-0.92183357
0.16740938
-1.1221876
-0.10103832
-1.2546617
-0.29798631
-1.3155947
-0.45763915
-1.3778176
-0.48792697
-1.4381321
-0.54176118
-1.4938224
-0.6103407
-1.5301813
-0.70535701
-1.541632
-0.80797833
-1.5289054
-0.90386413
-1.4951021
-0.98524047
-1.4441982
-1.0479103
-1.3806385
-1.0906844
-1.308546
-1.1142821
-1.2316699
-1.1212091
-1.1528525
-1.1143942
-1.0745417
-1.097
-0.99834174
-1.0715524
-0.92553064
-1.0404023
-0.85669051
-1.0053853
-0.79231016
-0.96816165
-0.7324833
-0.92979488
-0.67736743
-0.89124963
-0.62683067
-0.85305149
-0.58081828
-0.81568481
-0.53905684
-0.77934653
-0.50136703
-0.74430908
-0.46741994
-0.71060929
-0.43700835
-0.6783294
-0.40983009
-0.64740109
-0.38569025
-0.61783825
-0.36431601
-0.58958687
-0.34550521
-0.56265014
-0.32903002
-0.53694886
-0.31472652
-0.51245853
-0.30244092
-0.48910368
-0.29209355
-0.4667979
-0.28358948
-0.44540047
-0.27686337
-0.42470172
-0.27196748
-0.40425169
-0.26912278
-0.38330279
-0.26891281
-0.36064041
-0.27230874
-0.33535066
-0.27988821
-0.30914309
-0.29099536
-0.28634538
-0.30421797
-0.27000387
-0.31834865
-0.2600145
-0.33269037
-0.25460791
-0.34680395
-0.25204435
-0.36022509
-0.25120487
-0.37247432
-0.25111807
-0.3835241
-0.25062576
-0.39410993
-0.24843706
-0.40564321
-0.2432975
-0.41925426
-0.23385166
-0.43392224
-0.21861646
-0.44579395
-0.19695213
-0.45122612
-0.16961991
-0.44905047
-0.13816812
-0.43963271
-0.1068151
-0.42234313
-0.079645064
-0.07725064
0.75283846
-0.017246101
0.7617173
-0.050217963
0.78207901
-0.10130509
0.81457547
-0.15721769
0.85942789
-0.21700842
0.91678783
-0.28012219
0.98701887
-0.34660296
1.0705608
-0.41687585
1.1674374
-0.49129808
1.2776628
-0.57061097
1.4019165
-0.65527326
1.5404397
-0.74235349
1.6908669
-0.82307796
1.8472176
-0.88533048
2.001221
-0.91853267
2.1443509
-0.91719015
2.2694863
-0.8812248
2.3715912
-0.81458738
2.447723
-0.72327477
2.4966689
-0.61370647
2.5185974
-0.49186923
2.5150192
-0.36345591
2.488703
-0.23378925
2.4420211
-0.10511597
2.376024
0.024659509
2.2924343
0.16289415
2.1947972
0.31666426
2.0863285
0.48307799
1.9855792
0.66846895
1.9241227
0.90586932
1.8858601
1.1617284
1.8032213
1.3152532
1.6207893
1.2938042
1.3712838
1.1511407
1.1254437
0.97247027
0.92619185
0.7992859
0.79864632
0.64822747
0.64764997
0.53429844
0.43513838
0.38461511
0.080086974
0.257097
-0.41860677
0.20256276
-0.84899751
-0.026320132
-1.052099
-0.28603417
-1.1820979
-0.41684207
-1.276902
-0.52447665
-1.3300851
-0.65708972
-1.3486125
-0.79205478
-1.3382866
-0.91601835
-1.3047849
-1.0200275
-1.2540493
-1.0994721
-1.1916086
-1.1532586
-1.1222035
-1.183283
-1.0494658
-1.192994
-0.97630597
-1.1863024
-0.90481966
-1.1669863
-0.8364622
-1.1383889
-0.77198652
-1.1033373
-0.71180669
-1.0641382
-0.65605327
-1.022566
-0.60478692
-0.9799007
-0.55791427
-0.9371102
-0.51533664
-0.89484832
-0.47685371
-0.85356891
-0.4422602
-0.81358008
-0.41128211
-0.77511206
-0.38368408
-0.73825451
-0.35920167
-0.70302705
-0.3376119
-0.66939742
-0.31868612
-0.63731011
-0.30223915
-0.60673283
-0.28807744
-0.57761472
-0.27605768
-0.54989147
-0.26602026
-0.52348736
-0.25785678
-0.49833069
-0.25148909
-0.4742467
-0.24689789
-0.45108923
-0.24404584
-0.42863438
-0.24297582
-0.40639003
-0.24389322
-0.38346896
-0.24735216
-0.35828973
-0.25436331
-0.32946734
-0.26544005
-0.29918326
-0.27950808
-0.27338957
-0.29475787
-0.2558356
-0.30999328
-0.2458405
-0.32475036
-0.24088772
-0.33903258
-0.23876272
-0.35306768
-0.23811349
-0.3669094
-0.23815937
-0.38021473
-0.23812746
-0.39240557
-0.23696437
-0.40304566
-0.23327353
-0.41205139
-0.2253915
-0.41924792
-0.21193807
-0.42391184
-0.192785
-0.42516548
-0.16879518
-0.42188326
-0.14157882
-0.41334976
-0.1151774
-0.39801524
-0.09494526
-0.10580533
0.75242684
-0.020509601
0.76057623
-0.059317768
0.78091753
-0.12178244
0.81435042
-0.19009223
0.86138088
-0.26297965
0.92272114
-0.34008996
0.99943236
-0.42175003
1.0917753
-0.50750603
1.198973
-0.5967012
1.3215371
-0.69127378
1.4619481
-0.79375726
1.6212779
-0.89969251
1.7952583
-0.99508267
1.9745504
-1.0626489
2.1477931
-1.0898681
2.3047844
-1.0723712
2.4380088
-1.0127849
2.5428837
-0.91799694
2.6173111
-0.79645502
2.6609913
-0.65643349
2.6751589
-0.50536691
2.6624903
-0.35049225
2.6267311
-0.19801481
2.5712097
-0.049959623
2.4975322
0.09758389
2.4078416
0.25162056
2.3072281
0.41635093
2.1999726
0.58977658
2.1017282
0.76665198
2.0445155
0.96336455
2.0300607
1.1765602
2.0105721
1.3352176
1.9357396
1.3693037
1.8022162
1.2855902
1.6395699
1.1360992
1.4742449
0.96570642
1.3188074
0.80582982
1.1855697
0.67087895
1.0316624
0.54233237
0.81586445
0.47690084
0.60356584
0.41777548
0.23732928
0.34121918
-0.33012023
0.2786738
-0.79026998
0.028285307
-1.0414294
-0.27768177
-1.1232934
-0.58105692
-1.1508471
-0.76759048
-1.1421466
-0.92617805
-1.1075821
-1.0551794
-1.0560491
-1.1508104
-0.99454166
-1.2138416
-0.92800609
-1.2483447
-0.85998246
-1.2591066
-0.79312627
-1.251102
-0.72915065
-1.2288324
-0.66921235
-1.1963302
-0.61368284
-1.1569514
-0.5626842
-1.113443
-0.51610846
-1.0676002
-0.47387498
-1.0208514
-0.43574994
-0.97414588
-0.40155637
-0.92822783
-0.37101917
-0.88350128
-0.34392056
-0.84033947
-0.31997793
-0.79891765
-0.29898186
-0.75935163
-0.28068358
-0.72160857
-0.26488848
-0.6856752
-0.25139006
-0.65144579
-0.24003347
-0.61888153
-0.23068577
-0.58789268
-0.22325617
-0.55836348
-0.21765559
-0.53022904
-0.21376908
-0.50341129
-0.21154625
-0.47771053
-0.21101123
-0.45286416
-0.21219892
-0.42867232
-0.21517817
-0.40461956
-0.22015964
-0.3797015
-0.22767293
-0.35202736
-0.2387198
-0.31969304
-0.25360278
-0.28556829
-0.27068267
-0.25753795
-0.2879286
-0.23979987
-0.30438133
-0.23057621
-0.31976729
-0.22665061
-0.3339664
-0.22564668
-0.34715566
-0.2259318
-0.3596586
-0.22658048
-0.37165199
-0.22696781
-0.38298246
-0.22635975
-0.39305209
-0.22381829
-0.40086118
-0.21810727
-0.40535769
-0.20792992
-0.40592849
-0.19269541
-0.40218994
-0.17287509
-0.39356528
-0.15035724
-0.37970564
-0.12898037
-0.35987809
-0.11444019
-0.12917895
0.7521971
-0.0233168
0.75946078
-0.068532342
0.77997066
-0.14291604
0.81475894
-0.22459788
0.86480683
-0.31211606
0.93187989
-0.40585771
1.0175499
-0.50581581
1.1209569
-0.60910908
1.2411418
-0.71489603
1.3813532
-0.82938557
1.5468271
-0.9570463
1.7371298
-1.0877787
1.9429003
-1.1986687
2.1495499
-1.2671694
2.3426877
-1.2810257
2.5114151
-1.2392887
2.6490085
-1.1488142
2.7523261
-1.020028
2.8207522
-0.86389661
2.8552662
-0.69032339
2.8582281
-0.50808427
2.8334578
-0.32573267
2.7850877
-0.14993378
2.7177144
0.016953431
2.6321584
0.18248822
2.5316871
0.35133433
2.4222957
0.52518746
2.3090829
0.70276959
2.2013246
0.8745822
2.1222293
1.0427641
2.0845685
1.214643
2.0640123
1.3563403
2.0223233
1.4119184
1.9408191
1.3682623
1.827361
1.2506887
1.6975945
1.0968974
1.5558366
0.9493405
1.400743
0.8285672
1.2142364
0.7315868
1.004424
0.68778431
0.74789366
0.67461097
0.4165525
0.67553494
0.11909489
0.5687033
-0.30028855
0.44954484
-0.79355457
0.19686607
-0.91095836
-0.46946828
-0.94468963
-0.73636769
-0.93435768
-0.93758476
-0.89730225
-1.092335
-0.84500114
-1.2021709
-0.78509968
-1.2719813
-0.72237639
-1.3086047
-0.66022234
-1.3184488
-0.60081831
-1.3074827
-0.54554888
-1.2811171
-0.49517453
-1.2437964
-0.4497312
-1.1997266
-0.40881609
-1.1518986
-0.37215654
-1.102117
-0.33946469
-1.0516736
-0.3105095
-1.0015793
-0.28498423
-0.95252272
-0.26261196
-0.9049826
-0.24311796
-0.85922175
-0.2263284
-0.81540331
-0.21203962
-0.7735874
-0.20006835
-0.73379166
-0.19019769
-0.69597295
-0.18224519
-0.66004333
-0.17607423
-0.62587737
-0.17162022
-0.59333654
-0.16886547
-0.5622398
-0.16778104
-0.53254829
-0.16829226
-0.50422388
-0.17035323
-0.47702674
-0.17404997
-0.45056179
-0.17948975
-0.42461105
-0.18680442
-0.39867335
-0.19625601
-0.37164454
-0.20840022
-0.34133018
-0.22408204
-0.30544509
-0.24305721
-0.26795998
-0.26294282
-0.23895411
-0.28168405
-0.22231227
-0.29879144
-0.21470668
-0.31454563
-0.21210016
-0.3290384
-0.21229849
-0.34221344
-0.21381576
-0.35412431
-0.21563532
-0.36486133
-0.2170968
-0.37443118
-0.21754422
-0.38258224
-0.21630848
-0.38868806
-0.21255989
-0.39188474
-0.20526197
-0.39139486
-0.19369378
-0.38674894
-0.17796798
-0.3777624
-0.15950559
-0.36457305
-0.14200278
-0.34725039
-0.13173051
-0.14565825
0.75155478
-0.026460366
0.75830894
-0.076523658
0.77905981
-0.16404126
0.81558427
-0.26057593
0.86974149
-0.36513425
0.94472851
-0.47930674
1.0416358
-0.60094482
1.158469
-0.72397991
1.2969662
-0.85130108
1.465448
-0.99571427
1.669269
-1.1586579
1.9012399
-1.3175998
2.1437115
-1.4390151
2.3768742
-1.4983678
2.5850735
-1.4874035
2.7585478
-1.4111763
2.8928157
-1.2817439
2.9872037
-1.1133282
3.0432856
-0.91921547
3.0639348
-0.71049866
3.0529396
-0.49686902
3.0147561
-0.28738229
2.9536613
-0.088637788
2.873118
0.097611638
2.7733325
0.28221752
2.6587359
0.46584477
2.5357744
0.64812969
2.4105594
0.8282471
2.2880937
0.99751292
2.1812256
1.150304
2.1028554
1.2937365
2.0458825
1.4141294
1.989081
1.46969
1.9184112
1.4399906
1.8356932
1.3345799
1.7411139
1.1924666
1.6291727
1.0629111
1.4833379
0.97641689
1.291842
0.92454421
1.0448936
0.93538808
0.70975939
1.0116472
0.38211321
1.0029879
0.063905186
0.89793517
-0.078833341
0.5773496
-0.57924518
0.70392573
-0.71139026
-0.33820685
-0.73679163
-0.70955562
-0.71849064
-0.95372884
-0.67764455
-1.1305355
-0.6245946
-1.2520855
-0.56595861
-1.326873
-0.50699503
-1.3634243
-0.45109168
-1.3700054
-0.39989203
-1.3543198
-0.35439307
-1.3224011
-0.31481693
-1.2794042
-0.28039977
-1.2305296
-0.2502764
-1.1788097
-0.22401602
-1.1256083
-0.20129253
-1.072071
-0.18181296
-1.0191736
-0.16527038
-0.96759876
-0.15137743
-0.91780917
-0.13986435
-0.8700405
-0.13052499
-0.82439644
-0.12317181
-0.78091507
-0.11764345
-0.73958911
-0.11379742
-0.70035869
-0.11149806
-0.66312108
-0.11064855
-0.62772182
-0.11122962
-0.59392645
-0.11329882
-0.56150512
-0.11683858
-0.53045598
-0.12181218
-0.5007975
-0.12823137
-0.47219729
-0.13624321
-0.44415964
-0.14605603
-0.41639439
-0.15793213
-0.38838091
-0.17224343
-0.35895814
-0.18954203
-0.32567445
-0.21049532
-0.28609601
-0.23393492
-0.24604936
-0.25645657
-0.21788402
-0.27641518
-0.20376663
-0.29372966
-0.1987913
-0.3091743
-0.19799633
-0.32334518
-0.19937995
-0.33624175
-0.20206368
-0.34778148
-0.20512769
-0.357894
-0.20790249
-0.36641599
-0.20981998
-0.37306266
-0.21033915
-0.37741637
-0.20879059
-0.37895998
-0.20426187
-0.37719978
-0.19599002
-0.37177776
-0.18379841
-0.36283049
-0.16865428
-0.35090295
-0.15393618
-0.33655558
-0.14578967
-0.15866922
0.75139196
-0.028665498
0.75697883
-0.084199228
0.77800271
-0.18592419
0.81656107
-0.29891142
0.8761217
-0.42375214
0.96102516
-0.56278687
1.0712121
-0.70940255
1.2062032
-0.85699373
1.3744021
-1.0174455
1.5873718
-1.2065186
1.8432299
-1.4124422
2.1229171
-1.595217
2.4003609
-1.7145513
2.6533261
-1.7495045
2.8674294
-1.6998359
3.0357658
-1.5779672
3.1568563
-1.4014384
3.2328029
-1.1880867
3.2677411
-0.95318094
3.2670478
-0.70918274
3.2372552
-0.4666332
3.1839501
-0.23382569
3.1126587
-0.01701622
3.022023
0.18855482
2.9114348
0.39317542
2.7841235
0.59362509
2.6459977
0.78697936
2.5037802
0.97150274
2.3618496
1.1406773
2.2264867
1.2869195
2.1056391
1.4156554
1.9990249
1.5216831
1.9015335
1.5679725
1.8129416
1.5292372
1.7270885
1.4207933
1.6229154
1.2970992
1.4844306
1.202082
1.2857121
1.1759371
1.0197573
1.1910531
0.73769211
1.2176022
0.41273871
1.3359244
0.12316135
1.2993176
-0.10361463
1.1189771
-0.11307358
0.6005519
-0.55808132
1.1481358
-0.55052512
-0.3392106
-0.52425726
-0.73050696
-0.48584177
-0.98694356
-0.43708407
-1.1739694
-0.384569
-1.2989126
-0.33351057
-1.3718982
-0.28672151
-1.4039818
-0.24479574
-1.4056876
-0.20738075
-1.3856878
-0.17296099
-1.3510841
-0.14043376
-1.3066663
-0.11128285
-1.2549802
-0.08707565
-1.1989359
-0.067811224
-1.1413949
-0.05290082
-1.0840939
-0.041718321
-1.0280142
-0.033726907
-0.97376329
-0.028491205
-0.92168665
-0.02563316
-0.8719771
-0.024806255
-0.82469899
-0.025727356
-0.77983713
-0.028183883
-0.73731281
-0.032025831
-0.69700546
-0.037136993
-0.6587853
-0.043361447
-0.62252403
-0.050372507
-0.58817751
-0.057789421
-0.5555339
-0.065735703
-0.52412545
-0.074686672
-0.49359094
-0.085065506
-0.46369107
-0.097171172
-0.43399058
-0.11129605
-0.40419576
-0.12781131
-0.3737738
-0.1472169
-0.34147634
-0.17017221
-0.30468914
-0.19712538
-0.26116224
-0.22548148
-0.21956867
-0.25038197
-0.19466094
-0.27120291
-0.18452271
-0.28869123
-0.18278789
-0.30387055
-0.18425613
-0.31759475
-0.18696095
-0.33001154
-0.19082729
-0.34103929
-0.19516597
-0.35060399
-0.19929357
-0.35850471
-0.20276246
-0.36441399
-0.20516668
-0.36787961
-0.20598257
-0.36835543
-0.20441478
-0.36540046
-0.19955836
-0.35905703
-0.19069224
-0.3500624
-0.17793885
-0.3394288
-0.16449444
-0.32809269
-0.15719288
-0.16897014
0.75073494
-0.031099623
0.75526478
-0.0904609
0.77653852
-0.20767048
0.81752919
-0.33937707
0.88382676
-0.48883431
0.9803899
-0.65778214
1.1077056
-0.8348993
1.2717653
-1.0192214
1.4879829
-1.2317716
1.7626823
-1.479486
2.0791935
-1.7272792
2.4059639
-1.920481
2.7126948
-2.0198533
2.978456
-2.0139199
3.192183
-1.9122609
3.3501529
-1.7346491
3.4533236
-1.503378
3.5054726
-1.2390654
3.5118762
-0.95864611
3.4796431
-0.67623398
3.4184053
-0.40481896
3.3388317
-0.15338097
3.2516325
0.071223733
3.1524469
0.28895288
3.0372056
0.50975984
2.9035031
0.72884176
2.753234
0.93904172
2.5920579
1.1346449
2.4254078
1.3094083
2.2576635
1.4565394
2.0930363
1.5818351
1.9304767
1.6852468
1.7705829
1.7283472
1.6227521
1.6771006
1.4780568
1.5651699
1.302694
1.4721858
1.071827
1.4330782
0.78649661
1.4623667
0.46072791
1.5183934
0.15104521
1.5291676
-0.046195544
1.537764
-0.13243341
1.387225
-0.15634533
1.1562994
0.058285292
0.3884452
-0.24985387
1.5062961
-0.27587147
-0.29767411
-0.26924661
-0.72735622
-0.22860333
-1.0194639
-0.16049696
-1.2348569
-0.087629886
-1.3649678
-0.024735107
-1.4281677
0.025204688
-1.4474821
0.063155569
-1.4375288
0.090970336
-1.4078328
0.1101417
-1.3651045
0.1220629
-1.3139898
0.12867183
-1.2575729
0.13155748
-1.1983723
0.13154081
-1.138481
0.12914774
-1.0793171
0.12479101
-1.0217592
0.1188135
-0.96633151
0.11148954
-0.91332373
0.10303894
-0.8628657
0.093630862
-0.81498243
0.083400617
-0.76962014
0.072446766
-0.72667188
0.060844522
-0.68599201
0.048636615
-0.64742081
0.035835347
-0.61079974
0.022341268
-0.57597203
0.0080178205
-0.54270443
-0.0071470017
-0.51066339
-0.023110572
-0.47955203
-0.03970546
-0.44922473
-0.056761246
-0.41920675
-0.0749055
-0.3883665
-0.095509274
-0.35548075
-0.1198222
-0.31950914
-0.14878675
-0.27818572
-0.18227494
-0.23001959
-0.21636134
-0.18766266
-0.24353304
-0.16945983
-0.26465857
-0.16519287
-0.28233011
-0.16681304
-0.29758316
-0.17052541
-0.31116637
-0.17476356
-0.32334913
-0.179877
-0.33408024
-0.18553872
-0.34328482
-0.19108543
-0.35079921
-0.19613593
-0.35635226
-0.20039155
-0.35954661
-0.20347705
-0.35981085
-0.20479817
-0.35654593
-0.20346149
-0.34950907
-0.19825225
-0.33936327
-0.18838055
-0.32799499
-0.1760064
-0.31722991
-0.16772465
-0.17762253
0.7504776
-0.032553104
0.75323253
-0.096869873
0.77456496
-0.23035847
0.81834999
-0.38314848
0.8923672
-0.56202999
1.0034952
-0.7675813
1.1574486
-0.98732311
1.3695419
-1.2296509
1.6546218
-1.5152093
2.0036654
-1.826899
2.3831821
-2.1051104
2.7545053
-2.2900376
3.0885474
-2.3518696
3.3687133
-2.2918076
3.5879692
-2.128846
3.7448231
-1.888508
3.8407415
-1.5959724
3.878647
-1.2734653
3.8623543
-0.93883985
3.7974281
-0.60774929
3.693698
-0.2974782
3.5689472
-0.025136552
3.4366588
0.20656522
3.300882
0.42730497
3.162853
0.65001008
3.0163827
0.87739056
2.8546015
1.102934
2.6758099
1.3156835
2.4827082
1.5047487
2.2794552
1.6618296
2.0698184
1.7929343
1.8502368
1.905568
1.6137332
1.9648346
1.3674564
1.9227485
1.1145884
1.8172168
0.8427954
1.7435928
0.5411632
1.7354026
0.22547327
1.7796686
-0.072324204
1.8186741
-0.30612446
1.7666187
-0.39134918
1.627546
-0.37857111
1.38214
-0.39139904
1.1771134
-0.38703466
0.41551362
0.058292044
1.1103865
0.021962342
-0.2437092
0.098399377
-0.79290388
0.19212839
-1.1047749
0.26202542
-1.2972508
0.30960377
-1.4053553
0.34148541
-1.4530152
0.36082963
-1.4600232
0.37000025
-1.4402796
0.37115745
-1.4030815
0.36611884
-1.3547483
0.35642785
-1.2996018
0.34354258
-1.2406011
0.32860583
-1.1799355
0.31233873
-1.1192635
0.29518774
-1.0597313
0.2774557
-1.0020684
0.25934981
-0.94670943
0.24101529
-0.89387901
0.22255165
-0.84366817
0.20402284
-0.79606495
0.18546317
-0.7509918
0.16688537
-0.70832026
0.14828364
-0.66789055
0.12963402
-0.62952571
0.11088035
-0.59303812
0.091919854
-0.55822828
0.072628852
-0.52484951
0.052902874
-0.4925972
0.032607644
-0.4611489
0.011408763
-0.43016577
-0.011052368
-0.39911231
-0.034721318
-0.36724314
-0.059753169
-0.33314995
-0.08796868
-0.29415342
-0.12192999
-0.24719312
-0.16198384
-0.1930252
-0.20353357
-0.14893614
-0.23395886
-0.14165565
-0.25526972
-0.14618881
-0.27332088
-0.15083954
-0.28900871
-0.15666277
-0.3028073
-0.16246487
-0.3151388
-0.16883642
-0.32594767
-0.17587332
-0.33513346
-0.18292217
-0.34257269
-0.18962477
-0.34806313
-0.19574568
-0.35132677
-0.20099614
-0.3519603
-0.20492379
-0.34945004
-0.20671842
-0.3432462
-0.20513123
-0.33322348
-0.19884278
-0.32077026
-0.1884796
-0.30894726
-0.17974633
-0.18636905
0.7492903
-0.034818813
0.75093888
-0.10047075
0.77208343
-0.2523027
0.81861594
-0.42929486
0.90189518
-0.64422604
1.0353968
-0.89970548
1.234043
-1.1844982
1.5174581
-1.5115929
1.88838
-1.8847306
2.3176987
-2.2546755
2.7602712
-2.5460253
3.1773878
-2.7050655
3.5452357
-2.7172332
3.8530701
-2.5965466
4.09764
-2.3697775
4.2787033
-2.0653648
4.3960705
-1.7086806
4.4487261
-1.3212032
4.4360126
-0.92099764
4.3598089
-0.5264417
4.2214881
-0.15408086
4.0268576
0.17413292
3.7820383
0.45541706
3.5172152
0.69553688
3.2655688
0.9046155
3.0428919
1.1027904
2.8434904
1.3049831
2.6506274
1.5112161
2.4491847
1.7087746
2.231924
1.8813612
1.9994719
2.0270664
1.7490748
2.156858
1.4660031
2.2480955
1.1429483
2.2455974
0.79310768
2.1671674
0.4402849
2.0975102
0.10637386
2.071998
-0.18181741
2.0720802
-0.40106587
2.043925
-0.54758363
1.920773
-0.59720765
1.6861351
-0.5445397
1.3400743
-0.36295065
1.0130488
-0.61855555
0.69475602
0.18040262
0.33675745
0.39949635
-0.44770534
0.52615958
-0.90901575
0.60961598
-1.1799263
0.65658744
-1.3370429
0.67668905
-1.4188682
0.67894198
-1.4490317
0.66922446
-1.4444054
0.65130016
-1.4168589
0.62776779
-1.3745491
0.60051802
-1.3230478
0.570981
-1.2661828
0.54028262
-1.2065749
0.50925444
-1.1461012
0.47841893
-1.0861066
0.44807826
-1.0275142
0.41839678
-0.97092118
0.38945424
-0.91667697
0.36127459
-0.86495709
0.3338486
-0.8158184
0.30713955
-0.76922776
0.28109751
-0.72509364
0.25565724
-0.6832777
0.23074788
-0.64361448
0.20628415
-0.60591758
0.18216882
-0.56998829
0.15827854
-0.53560604
0.13447847
-0.50251792
0.11062634
-0.47042303
0.086544923
-0.43897088
0.061975546
-0.40773536
0.03661615
-0.37610882
0.010016513
-0.34319827
-0.018359706
-0.30753623
-0.049080821
-0.26657538
-0.084725359
-0.21518257
-0.1295184
-0.15204888
-0.1816551
-0.10073648
-0.21880298
-0.10815844
-0.24103968
-0.12689992
-0.26051883
-0.13384603
-0.27692603
-0.14225531
-0.29134419
-0.14972854
-0.30419766
-0.15734923
-0.31547487
-0.16575697
-0.32504534
-0.1743881
-0.3327683
-0.18284605
-0.33846962
-0.19090757
-0.3419627
-0.19829572
-0.3430453
-0.20459954
-0.34145383
-0.20905581
-0.3367321
-0.21048817
-0.32851185
-0.20744662
-0.31773668
-0.19955003
-0.306703
-0.190594
-0.19466191
0.74925357
-0.035074931
0.7483459
-0.10317588
0.76889886
-0.27450055
0.81776391
-0.47834547
0.91569299
-0.74147375
1.0879607
-1.0708969
1.3550791
-1.4503084
1.7300831
-1.8852344
2.1956527
-2.3486586
2.7050414
-2.7621563
3.2088314
-3.04734
3.6732316
-3.1664001
4.0825396
-3.1227294
4.4328711
-2.9423407
4.7251064
-2.6568043
4.9598599
-2.2943138
5.1348293
-1.8774397
5.244097
-1.4239282
5.2787634
-0.94906173
5.2265958
-0.46755509
5.0725445
0.0066548111
4.8046528
0.44798649
4.4278236
0.83734662
3.9752145
1.1524482
3.4988364
1.3845594
3.0566698
1.5479181
2.6888484
1.6753445
2.4010714
1.8012036
2.1692401
1.9425932
1.9598321
2.0924434
1.7506168
2.2375091
1.5308981
2.3772498
1.2833082
2.4959605
0.98688853
2.5424386
0.64791219
2.5074597
0.30480454
2.443824
0.0021697445
2.380356
-0.21802451
2.3008121
-0.33033395
2.1671317
-0.34809767
1.9510846
-0.30297715
1.6543597
-0.24666321
1.2983558
-0.11036222
0.89380329
0.15734631
0.45010073
0.65149582
-0.13987911
0.87810484
-0.66082998
0.9863437
-1.0066361
1.0329597
-1.217726
1.0413777
-1.3377581
1.0254907
-1.3959251
0.99470361
-1.4116552
0.95510078
-1.3986281
0.91048425
-1.3665481
0.8633
-1.3222051
0.81516403
-1.270339
0.76718076
-1.2142144
0.72011884
-1.1560994
0.67447829
-1.0975777
0.63052941
-1.0397666
0.58838649
-0.98342864
0.54805245
-0.92905704
0.50946889
-0.87694015
0.47253877
-0.82722066
0.43714485
-0.77993672
0.40316083
-0.73505042
0.37045308
-0.69246453
0.33889031
-0.65204622
0.30834221
-0.6136331
0.2786782
-0.57704142
0.24976317
-0.54207141
0.22145698
-0.50850072
0.19361181
-0.47607558
0.1660762
-0.44449827
0.13868192
-0.41341045
0.11123839
-0.38235599
0.083558647
-0.35070754
0.055456388
-0.31754994
0.026690892
-0.28146151
-0.0030487435
-0.23997283
-0.034082164
-0.18807233
-0.073502075
-0.11753533
-0.13415859
-0.047038161
-0.18908391
-0.059872415
-0.21738216
-0.10244441
-0.24154782
-0.1122606
-0.25995492
-0.12641427
-0.27566609
-0.13652563
-0.28963234
-0.14535146
-0.30197711
-0.15491301
-0.31247261
-0.16511338
-0.32092214
-0.17545654
-0.32717541
-0.18562401
-0.33113395
-0.19525483
-0.33272772
-0.20390572
-0.33182075
-0.21085065
-0.32812867
-0.2149825
-0.32155415
-0.21461003
-0.31279381
-0.20841733
-0.30381844
-0.19991336
-0.20200733
0.74811024
-0.035954846
0.74531945
-0.10252714
0.76417937
-0.29407519
0.81696993
-0.53065569
0.94373338
-0.86717872
1.1777755
-1.3035771
1.5344692
-1.8055973
2.0113288
-2.3604601
2.5682821
-2.9037195
3.1459632
-3.3374627
3.695909
-3.5943181
4.1931801
-3.6600601
4.6323556
-3.5576084
5.0177759
-3.3229271
5.3555741
-2.9892741
5.6488444
-2.5819607
5.8958028
-2.118555
6.0892167
-1.6114935
6.2165514
-1.0705884
6.2589252
-0.50416186
6.1925115
0.07832167
5.9895525
0.65542302
5.6418833
1.1887236
5.1544126
1.6428499
4.5507247
1.9905142
3.8791864
2.2211608
3.2083226
2.3475195
2.6074252
2.4032108
2.1204754
2.4305703
1.7515501
2.462378
1.476809
2.513132
1.2671702
2.5876926
1.0897372
2.6743017
0.90516723
2.7285946
0.69739886
2.7181853
0.48991367
2.6563357
0.3200909
2.5576275
0.21794643
2.4126644
0.19579824
2.2007086
0.24976098
1.9095204
0.37260116
1.5441004
0.56170215
1.1221051
0.80353666
0.66699627
1.1121299
0.15702327
1.3380316
-0.3519631
1.4405889
-0.75195049
1.4678595
-1.0245859
1.4517697
-1.1939142
1.4096991
-1.28905
1.3522221
-1.3325545
1.2863912
-1.340445
1.2168179
-1.3241161
1.1464006
-1.2916223
1.0769152
-1.2486771
1.0094436
-1.1993101
0.94461433
-1.1463201
0.88277595
-1.091669
0.82407774
-1.0367321
0.76851268
-0.98246256
0.71597651
-0.9295275
0.66629782
-0.87835486
0.61927746
-0.82920867
0.57469931
-0.7822184
0.53234297
-0.73742038
0.49199239
-0.69478463
0.45344522
-0.65422901
0.41650755
-0.61563248
0.38099974
-0.57884773
0.34675108
-0.54370377
0.31359976
-0.51001053
0.28138825
-0.47755529
0.24996508
-0.44609314
0.2191815
-0.4153388
0.18889793
-0.38494451
0.15899274
-0.35446878
0.12940812
-0.32332394
0.1001929
-0.29069616
0.071606516
-0.25541596
0.044497929
-0.21577468
0.022103406
-0.1692813
0.012409127
-0.11364801
-0.0039568076
-0.039658598
-0.070633591
-0.00080390704
-0.14588641
-0.031314168
-0.2009998
-0.061349586
-0.23233079
-0.099060774
-0.25336059
-0.11826716
-0.27011686
-0.13108138
-0.28475189
-0.14219089
-0.29707868
-0.15419115
-0.30693671
-0.16672841
-0.31427039
-0.17927509
-0.31909913
-0.19132504
-0.32145344
-0.20241267
-0.32123526
-0.21191032
-0.31819764
-0.21875467
-0.31234076