/*--------------------------------*- C++ -*----------------------------------*\
| =========                 |                                                 |
| \\      /  F ield         | OpenFOAM: The Open Source CFD Toolbox           |
|  \\    /   O peration     | Version:  2406                                  |
|   \\  /    A nd           | Website:  www.openfoam.com                      |
|    \\/     M anipulation  |                                                 |
\*---------------------------------------------------------------------------*/
FoamFile
{
    version     2.0;
    format      ascii;
    arch        "LSB;label=32;scalar=64";
    class       volVectorField;
    location    "100";
    object      U;
}
// * * * * * * * * * * * * * * * * * * * * * * * * * * * * * * * * * * * * * //

dimensions      [0 1 -1 0 0 0 0];

internalField   nonuniform List<vector> 
10720
(
(3.6971289 -3.6353896 -3.8038366e-16)
(3.645774 -0.99121118 6.2176382e-16)
(3.9218789 1.7454734 0)
(4.5410049 4.8197834 2.3196619e-15)
(5.6771931 8.0452979 -1.8918433e-15)
(7.2889823 11.052421 -8.5395057e-16)
(9.2529535 13.646396 -6.080771e-16)
(11.484168 15.798711 0)
(13.906563 17.503157 0)
(16.422582 18.747625 0)
(18.954349 19.55109 4.9563378e-17)
(21.439649 19.952851 0)
(23.819747 19.9862 2.2765269e-16)
(26.063147 19.699384 0)
(28.137865 19.132103 0)
(30.020729 18.326452 0)
(31.685304 17.310442 -1.4202089e-15)
(33.116321 16.129033 -2.5542567e-15)
(34.281952 14.805089 2.4797034e-15)
(35.174394 13.393091 0)
(35.715855 11.912408 2.2835248e-15)
(35.816872 10.383395 -4.7387904e-15)
(35.448797 8.8324635 2.4845869e-15)
(34.669475 7.3253294 -7.5765385e-17)
(33.662183 5.9468836 0)
(32.54553 4.7003762 1.116976e-15)
(31.263908 3.5473408 1.7977242e-17)
(29.710877 2.4858176 -5.4903916e-16)
(27.78927 1.5293895 -2.1207991e-15)
(25.362565 0.69597254 -8.368068e-15)
(22.274422 0.016007497 4.1269599e-15)
(18.410784 -0.48008952 8.7489987e-15)
(13.988044 -0.78070929 9.4216063e-15)
(9.9403181 -0.96165754 4.2227636e-14)
(8.0991907 -1.2696479 -2.0251076e-14)
(10.366851 -1.9956887 -9.7222913e-17)
(12.262991 -2.4602243 5.0505423e-18)
(12.820495 -2.5851173 -8.3781042e-15)
(8.3469284 -1.8855265 3.182017e-14)
(4.0071929 -6.3788154 -1.1501217e-16)
(4.6890888 -9.2281608 -1.5381727e-16)
(5.8919751 -12.246937 2.1278811e-16)
(7.6416878 -15.217724 -3.6566653e-16)
(9.9498442 -17.954932 -4.4549907e-16)
(12.776389 -20.26927 2.3399248e-16)
(15.939435 -21.918522 3.1918926e-16)
(19.120592 -22.723732 5.9016329e-17)
(22.07937 -22.757044 0)
(24.668083 -22.171894 0)
(26.754604 -21.114085 -3.1199786e-16)
(28.322015 -19.782926 -1.8450805e-16)
(29.462481 -18.369915 3.7832454e-16)
(30.197473 -16.929673 -3.9178454e-16)
(30.636336 -15.545455 -7.0299817e-16)
(30.873998 -14.249232 -5.2440482e-16)
(31.004276 -13.070952 -9.071393e-16)
(31.089979 -12.01137 -7.0995515e-16)
(31.196229 -11.071472 0)
(31.351615 -10.225831 0)
(31.569975 -9.4509516 1.6924231e-15)
(31.830091 -8.7015528 1.0966343e-16)
(32.122001 -7.9492092 -1.8871176e-15)
(32.323764 -7.1477629 1.8280166e-15)
(32.24179 -6.2613839 4.7927384e-17)
(31.838733 -5.3379109 0)
(31.13636 -4.4119743 -9.045498e-16)
(30.13844 -3.5041188 0)
(28.795226 -2.6318115 0)
(27.019808 -1.8151548 -8.321447e-16)
(24.690385 -1.0783107 0)
(21.688773 -0.44593286 3.3142175e-15)
(18.038221 0.06111719 6.500903e-15)
(14.177181 0.44499266 3.3955593e-14)
(11.081712 0.76720113 -1.3216127e-14)
(10.63698 1.2602155 4.3501862e-17)
(12.346266 1.8190202 0)
(13.252439 2.0724736 4.999118e-15)
(9.7146593 1.7675383 1.6985549e-14)
(7.3866772 -3.090104 -1.7728714e-16)
(7.203465 -0.9191654 2.8735589e-16)
(7.3553184 1.5737584 0)
(7.8296612 4.1683672 0)
(8.7727627 6.6849421 4.6359193e-16)
(10.172992 9.0057411 6.9521799e-16)
(11.937629 11.039808 0)
(13.990383 12.744432 0)
(16.270207 14.088754 -5.9152614e-16)
(18.692674 15.047786 0)
(21.17865 15.616489 -7.1593814e-16)
(23.65801 15.808744 0)
(26.069748 15.652656 5.8853207e-17)
(28.368269 15.180346 -5.6290777e-17)
(30.516812 14.420909 3.7057448e-16)
(32.483763 13.41373 -1.0474771e-15)
(34.247177 12.180393 1.5251513e-15)
(35.778719 10.765408 1.5250614e-15)
(37.066216 9.1909966 1.7001041e-15)
(38.075895 7.5079205 1.1928477e-16)
(38.848654 5.7838649 -2.1748307e-15)
(39.443899 4.135202 2.1696101e-15)
(39.882365 2.6373094 -1.1923445e-16)
(40.149455 1.3326007 0)
(40.262942 0.24633388 0)
(40.293367 -0.67590523 0)
(40.253254 -1.499707 9.6898742e-17)
(40.100956 -2.2273289 -2.2039935e-17)
(39.801928 -2.8446218 1.3939251e-15)
(39.283635 -3.3345988 4.6088805e-17)
(38.395561 -3.6831788 -3.5704127e-17)
(36.853319 -3.8841052 -8.5024425e-17)
(34.37605 -3.9766864 3.6475234e-15)
(31.244924 -4.0706524 -6.9325879e-15)
(28.808513 -4.3288279 -4.1492616e-17)
(26.811556 -4.5757427 -7.9165525e-15)
(24.475346 -4.5606301 0)
(22.00622 -4.2986272 1.9656616e-15)
(16.69676 -3.5754107 1.388526e-14)
(7.7973063 -5.2512792 1.7291242e-16)
(8.5548681 -7.3659656 -2.4140882e-16)
(9.7578777 -9.5570087 -1.4097287e-15)
(11.441689 -11.717347 1.1140939e-15)
(13.604463 -13.649962 0)
(16.22456 -15.19383 -4.8912647e-16)
(19.178145 -16.184196 -7.7048842e-17)
(22.242421 -16.527495 -4.8157402e-16)
(25.182823 -16.277692 1.3980454e-16)
(27.858966 -15.52526 7.1419392e-17)
(30.162808 -14.394873 -1.4143418e-16)
(32.038729 -13.074236 7.0381846e-17)
(33.502685 -11.69598 0)
(34.670368 -10.3954 1.2811925e-16)
(35.58868 -9.2299827 1.0484906e-16)
(36.328994 -8.1990511 4.8926081e-16)
(36.922518 -7.2877024 0)
(37.40606 -6.4762029 0)
(37.802853 -5.7453059 7.5703246e-17)
(38.141247 -5.0606591 -7.5246543e-17)
(38.439706 -4.4053623 1.1699784e-15)
(38.730502 -3.7502509 1.6106863e-16)
(39.010394 -3.0508696 -8.1472937e-17)
(39.287345 -2.2426744 -1.3530735e-15)
(39.520259 -1.3654709 1.4489026e-15)
(39.663216 -0.51116723 1.2803669e-15)
(39.733235 0.27932666 0)
(39.732334 0.9933236 0)
(39.642336 1.6222806 0)
(39.417691 2.1502804 1.1623267e-17)
(38.971986 2.5631477 0)
(38.127018 2.8581173 0)
(36.628117 3.0592096 -5.97407e-15)
(34.330591 3.2223002 -5.3913928e-15)
(31.802316 3.4500676 4.7001493e-15)
(29.674546 3.7330411 -3.2572515e-15)
(27.300816 3.8485406 2.2389794e-15)
(24.444408 3.702208 -2.419022e-15)
(19.39453 3.276425 -7.4394546e-15)
(10.490474 -2.596085 -4.3576769e-17)
(10.296938 -0.79044151 -9.3279639e-16)
(10.375256 1.2974325 5.7757855e-16)
(10.726472 3.4611455 4.3062786e-16)
(11.413157 5.5919417 6.7237049e-16)
(12.425565 7.6595175 -1.6282226e-15)
(13.721765 9.5788937 9.3316249e-16)
(15.268712 11.283621 6.8337399e-16)
(17.028984 12.739908 5.5092183e-17)
(18.949468 13.906259 4.360734e-16)
(20.97131 14.759681 -2.3527979e-16)
(23.038434 15.29737 2.5690237e-16)
(25.096117 15.526846 3.5336007e-18)
(27.098898 15.462925 0)
(29.005598 15.126973 -3.475692e-16)
(30.781642 14.544844 9.8886132e-16)
(32.39536 13.741998 0)
(33.817121 12.752727 -2.7825009e-15)
(35.021544 11.609506 -1.6360435e-15)
(35.984302 10.357211 2.2270728e-16)
(36.685192 9.0375819 -2.2388817e-16)
(37.119288 7.7008781 -1.1792353e-16)
(37.330704 6.3512653 -1.6872379e-15)
(37.360912 5.06032 8.7939025e-16)
(37.27177 3.9046675 0)
(37.142527 2.8441367 8.154295e-16)
(37.007665 1.8091566 -9.9325231e-17)
(36.864113 0.80370702 0)
(36.740294 -0.16096352 1.3452893e-15)
(36.688413 -1.0826575 2.5013448e-15)
(36.767098 -1.9561876 -4.3300056e-15)
(36.961575 -2.7790467 -3.6673444e-15)
(37.034747 -3.5600821 -1.0606797e-16)
(36.52541 -4.3248509 -5.475816e-15)
(35.428598 -5.0477311 -4.7872744e-15)
(33.741458 -5.535989 6.6340599e-15)
(31.358458 -5.6241799 0)
(28.06408 -5.2623283 1.6248602e-15)
(22.09 -4.5427079 -2.0235791e-14)
(10.849417 -4.4233563 -1.2534402e-16)
(11.445836 -6.1969276 -1.7914744e-16)
(12.346073 -8.0762641 6.2197494e-16)
(13.581989 -9.9868733 0)
(15.153922 -11.768488 3.4273056e-16)
(17.060165 -13.333134 0)
(19.224837 -14.579109 7.1187157e-16)
(21.503244 -15.422882 2.8015225e-16)
(23.747731 -15.835249 1.6011799e-16)
(25.849991 -15.849218 0)
(27.721378 -15.533919 9.2824589e-17)
(29.298946 -14.983357 8.4830672e-17)
(30.577846 -14.280804 -4.0770055e-16)
(31.583714 -13.494124 0)
(32.357607 -12.685865 3.8642406e-16)
(32.955377 -11.890671 1.3182894e-16)
(33.42524 -11.128894 -6.7382788e-16)
(33.808631 -10.403705 -4.081674e-16)
(34.14067 -9.7110083 -1.5341355e-16)
(34.44888 -9.0340011 7.4021896e-17)
(34.749128 -8.3574361 -1.1972232e-15)
(35.049138 -7.6566533 0)
(35.345309 -6.9013472 0)
(35.593726 -6.0690195 5.1817302e-17)
(35.760863 -5.1499453 0)
(35.829077 -4.2097956 -2.7568323e-15)
(35.830502 -3.2755927 4.1813562e-17)
(35.800027 -2.3525275 3.0729461e-16)
(35.766374 -1.4454359 0)
(35.769911 -0.56268088 5.3572487e-16)
(35.870511 0.28990497 -9.3428948e-16)
(36.113491 1.1116655 0)
(36.437279 1.9100186 2.7870236e-15)
(36.543384 2.6904989 0)
(36.072947 3.4467989 0)
(35.039048 4.0768422 8.5840708e-17)
(33.266812 4.4222748 -9.6589083e-17)
(30.60668 4.3828898 1.9741657e-15)
(25.191729 4.0140396 1.0988255e-14)
(12.926151 -2.1934317 -1.2339527e-16)
(12.751633 -0.65624466 -2.4938303e-16)
(12.785835 1.1326142 3.896072e-16)
(13.031465 2.9893867 2.9719818e-16)
(13.541509 4.8247613 0)
(14.329423 6.6337711 0)
(15.376698 8.3356461 1.4076403e-15)
(16.665663 9.8650564 -1.2368075e-15)
(18.170647 11.19211 0)
(19.850957 12.271587 7.0442725e-16)
(21.659171 13.075904 4.6784047e-16)
(23.547359 13.592953 3.0456315e-16)
(25.4647 13.819129 -6.9834361e-17)
(27.364582 13.759199 3.9279174e-17)
(29.203341 13.426544 0)
(30.941427 12.839411 4.4407764e-16)
(32.543545 12.019124 2.0381902e-16)
(33.976532 10.993704 2.349807e-15)
(35.211841 9.7920959 1.7585049e-16)
(36.223425 8.4526827 -1.7577392e-16)
(36.991088 7.0158383 1.7519489e-15)
(37.505782 5.5398988 -3.0803561e-16)
(37.759762 4.1265415 1.8053746e-15)
(37.778865 2.8429616 7.5407004e-16)
(37.631107 1.7154877 -4.7752766e-17)
(37.388681 0.71361981 -7.18791e-16)
(37.074221 -0.20073409 5.465564e-18)
(36.68166 -1.0251648 -5.4716721e-18)
(36.21951 -1.7486135 -1.2875296e-15)
(35.720384 -2.3687609 -3.4660928e-17)
(35.248654 -2.8924509 2.1991473e-15)
(34.912767 -3.3519892 -3.7358002e-15)
(34.799582 -3.83604 -3.0881874e-15)
(34.739788 -4.4460741 6.7958624e-17)
(34.322677 -5.1092232 4.6915439e-15)
(33.497951 -5.5902972 0)
(32.386637 -5.7784769 2.3763452e-15)
(30.996895 -5.632463 -1.6217947e-15)
(26.151195 -5.1671761 9.3760281e-15)
(13.24119 -3.7505271 -9.2097359e-17)
(13.745194 -5.2449379 3.2009796e-16)
(14.503985 -6.8377667 7.0875799e-16)
(15.545615 -8.4649304 0)
(16.866649 -9.9840985 -3.0354434e-16)
(18.477429 -11.333534 0)
(20.327932 -12.423432 -6.7462237e-16)
(22.309273 -13.164956 7.2984097e-17)
(24.310606 -13.518472 1.8985274e-16)
(26.241095 -13.502687 2.6661762e-17)
(28.021238 -13.162875 -7.3642976e-17)
(29.591396 -12.567466 -5.8602772e-17)
(30.931142 -11.794224 2.8125327e-16)
(32.04496 -10.918579 -6.9159347e-17)
(32.953443 -10.008557 -3.5633933e-16)
(33.690871 -9.1074803 -5.145661e-16)
(34.292501 -8.241801 6.0568418e-16)
(34.791535 -7.4229439 4.5835671e-17)
(35.218087 -6.6545236 0)
(35.598016 -5.9256761 -1.0353064e-15)
(35.947422 -5.2233369 -6.9248351e-17)
(36.275696 -4.523626 1.1813785e-15)
(36.580519 -3.7974956 0)
(36.844541 -2.9955234 5.098482e-17)
(37.006811 -2.1427298 0)
(37.0282 -1.3117768 1.2325397e-15)
(36.918558 -0.53317156 0)
(36.69882 0.1863681 -2.8859366e-16)
(36.38166 0.83975032 1.2186908e-17)
(35.982662 1.4154001 -7.9206702e-18)
(35.536451 1.9074924 8.6896954e-16)
(35.107614 2.3286115 2.5913831e-17)
(34.794435 2.7217869 0)
(34.635413 3.1679424 -2.2292581e-15)
(34.413598 3.7032258 -3.2686019e-17)
(33.889431 4.2037703 2.5943979e-15)
(33.02341 4.4996028 -3.5203347e-15)
(32.177328 4.5293102 4.6595337e-19)
(28.551913 4.3591494 0)
(14.922041 -1.8628619 -1.4019932e-16)
(14.764707 -0.52896209 -1.8199928e-16)
(14.776943 1.0252363 5.7823864e-16)
(14.961972 2.6392342 -2.0413695e-15)
(15.361411 4.2363567 4.3572722e-16)
(15.992663 5.8330881 6.9621806e-16)
(16.8446 7.3582952 -6.2669066e-16)
(17.906056 8.7568426 0)
(19.162606 10.00391 -1.176797e-15)
(20.583967 11.057925 -2.8273122e-16)
(22.135871 11.890496 0)
(23.781487 12.485039 -2.7973614e-16)
(25.478017 12.830408 3.164781e-17)
(27.183819 12.923566 -7.8006524e-17)
(28.858388 12.76953 0)
(30.462449 12.37927 -6.09933e-16)
(31.959443 11.769758 7.3250503e-16)
(33.314632 10.964275 -1.0870469e-16)
(34.496817 9.9912229 0)
(35.478517 8.8863176 1.4311217e-15)
(36.237306 7.692025 -1.6512421e-15)
(36.758959 6.4692464 -9.5778083e-17)
(37.055838 5.2454559 -1.4799097e-15)
(37.150435 4.0659167 -1.4224963e-15)
(37.087083 2.9814554 0)
(36.923164 1.9853785 0)
(36.682923 1.0402674 -1.6493248e-16)
(36.358705 0.14473523 -1.9236615e-17)
(35.948176 -0.69115138 1.1895204e-15)
(35.460396 -1.4615814 -3.247564e-17)
(34.915268 -2.1613493 3.2217281e-17)
(34.34406 -2.7958384 3.4916147e-15)
(33.797201 -3.4003638 0)
(33.283526 -4.0409762 1.0708663e-14)
(32.624223 -4.6768583 -3.9793762e-17)
(31.74172 -5.1337973 0)
(30.674365 -5.3382721 -5.7734386e-17)
(30.233054 -5.3144767 0)
(27.656667 -5.2439132 -9.0814646e-15)
(15.195417 -3.2145811 1.502066e-16)
(15.617174 -4.5058357 -4.955778e-16)
(16.248837 -5.8970531 3.7044032e-16)
(17.112251 -7.3324574 2.7231603e-16)
(18.198733 -8.68746 -1.0328196e-15)
(19.524615 -9.9248844 -7.5779718e-16)
(21.054851 -10.975322 6.5397402e-16)
(22.701075 -11.764314 -4.4572641e-16)
(24.377444 -12.256845 -1.1780848e-16)
(26.017289 -12.463862 -6.5379743e-17)
(27.556257 -12.41591 5.9515672e-17)
(28.942809 -12.158206 1.0722082e-16)
(30.154082 -11.744661 1.0721136e-16)
(31.185796 -11.228726 -1.0718534e-16)
(32.046636 -10.654644 4.2559954e-16)
(32.757299 -10.055061 -4.2302099e-17)
(33.3441 -9.4508392 0)
(33.834076 -8.853978 5.6566418e-16)
(34.253859 -8.2675378 -2.3316973e-16)
(34.626654 -7.6851445 1.1112997e-15)
(34.968854 -7.0938451 0)
(35.288842 -6.4758872 -1.0687456e-15)
(35.585194 -5.8090014 -9.9369162e-16)
(35.835435 -5.0802402 1.0805051e-15)
(36.002181 -4.2869748 0)
(36.062711 -3.4518414 1.1145114e-15)
(36.022341 -2.604034 0)
(35.894887 -1.7601059 0)
(35.685245 -0.93477038 0)
(35.395779 -0.14467795 -4.5342224e-16)
(35.034626 0.59723101 0)
(34.613804 1.2859737 0)
(34.151989 1.9295178 2.5377514e-15)
(33.67496 2.5532738 2.2077083e-15)
(33.128752 3.176101 0)
(32.412739 3.7103796 2.4319406e-15)
(31.42873 4.0541745 8.0941542e-17)
(30.83534 4.1442225 0)
(29.036451 4.2094052 -5.0062494e-15)
(16.57504 -1.5876492 1.8805135e-16)
(16.434903 -0.41343585 -1.4455433e-16)
(16.436903 0.95555357 0)
(16.582921 2.3770278 2.2800832e-17)
(16.905747 3.7825192 1.0115761e-15)
(17.425419 5.1995674 -6.07886e-16)
(18.13511 6.5650982 8.8869227e-18)
(19.029015 7.830884 1.28863e-15)
(20.10054 8.9761184 3.0714385e-17)
(21.327429 9.9631915 -8.1032597e-16)
(22.6849 10.763894 2.436027e-16)
(24.145277 11.359577 -2.8983571e-16)
(25.673231 11.733289 -1.1552645e-16)
(27.232396 11.876341 -1.0777424e-16)
(28.785459 11.787287 0)
(30.294319 11.470199 -1.3188648e-16)
(31.721763 10.936345 -3.7532284e-16)
(33.032593 10.202326 -1.6159004e-15)
(34.193796 9.2919214 5.908127e-16)
(35.176055 8.2355513 -9.1162545e-16)
(35.954773 7.0715437 -1.5059867e-16)
(36.516257 5.8446151 0)
(36.85796 4.6162486 1.3300586e-15)
(36.995091 3.4477288 8.4345209e-17)
(36.968746 2.3754422 -4.0665114e-17)
(36.830434 1.3959781 -5.6936092e-16)
(36.606181 0.48569654 1.3639776e-16)
(36.295569 -0.3582122 2.8740968e-16)
(35.899886 -1.125371 -1.1028099e-15)
(35.429978 -1.8101567 -5.9804565e-17)
(34.90398 -2.4126784 1.9023636e-15)
(34.33528 -2.9479436 3.1310485e-15)
(33.720508 -3.4569768 0)
(33.035822 -4.0026382 -6.4982682e-17)
(32.18838 -4.5575184 -4.1828039e-15)
(31.153026 -4.9601957 0)
(29.855998 -5.1220266 -4.4658269e-15)
(28.938202 -4.9883293 0)
(27.348226 -4.9846183 8.9479692e-15)
(16.813189 -2.7759549 -1.313011e-16)
(17.172197 -3.9062747 1.9938622e-16)
(17.71058 -5.1340341 0)
(18.447415 -6.4077915 0)
(19.371379 -7.6158067 4.561276e-16)
(20.501876 -8.7344904 1.4003963e-15)
(21.81355 -9.7051701 0)
(23.232801 -10.458886 -4.226007e-16)
(24.691249 -10.960785 -3.0803602e-16)
(26.139098 -11.213953 1.6915978e-16)
(27.524004 -11.235692 3.933251e-17)
(28.801811 -11.054087 2.977551e-17)
(29.951268 -10.70619 4.0710635e-17)
(30.96349 -10.232009 -2.3363917e-16)
(31.838618 -9.6690926 -3.607647e-16)
(32.587197 -9.050344 4.5996066e-16)
(33.22593 -8.401953 -8.9021783e-17)
(33.773616 -7.743071 1.8547565e-16)
(34.249928 -7.0845955 -9.6224728e-17)
(34.673071 -6.4275838 -7.2099466e-16)
(35.056615 -5.7664122 -1.0848671e-16)
(35.407992 -5.0886543 1.1935892e-16)
(35.725521 -4.3774652 8.8679339e-16)
(35.99419 -3.6089065 0)
(36.180487 -2.7861615 -6.5051362e-17)
(36.252553 -1.965071 -2.0026865e-15)
(36.210204 -1.1806217 1.5360523e-17)
(36.067142 -0.44433494 -1.5228484e-17)
(35.832263 0.2373724 0)
(35.513225 0.85609077 4.2606095e-16)
(35.123299 1.406718 0)
(34.677844 1.8959613 0)
(34.183741 2.3480864 -2.3578331e-15)
(33.628895 2.806468 -2.0313935e-15)
(32.951247 3.3002065 0)
(32.097845 3.7442834 -2.2899541e-15)
(30.970555 4.0222089 3.0790903e-15)
(29.872004 3.9805146 1.6009622e-18)
(28.385459 3.9444441 4.8494343e-15)
(17.970439 -1.3573961 3.1481918e-17)
(17.8469 -0.31130899 -1.1276759e-16)
(17.844689 0.90674606 3.5258234e-16)
(17.966167 2.1703558 -3.243803e-16)
(18.236318 3.418125 -5.7954191e-16)
(18.675188 4.6826714 0)
(19.277951 5.9092031 7.8746949e-16)
(20.040913 7.0552593 -8.4518957e-17)
(20.962042 8.1057094 3.0094962e-16)
(22.024572 9.0271558 5.0880351e-16)
(23.210688 9.7940451 0)
(24.500129 10.388553 5.3806142e-16)
(25.864141 10.792082 2.0132773e-16)
(27.272456 10.992631 1.2855732e-16)
(28.692278 10.984646 0)
(30.0882 10.767089 -2.9331465e-16)
(31.424878 10.346605 -4.8067231e-16)
(32.667354 9.735674 7.3606353e-16)
(33.782179 8.9546365 -8.9750172e-16)
(34.739193 8.030706 9.5348914e-16)
(35.513212 6.9989625 1.4380977e-16)
(36.087331 5.9050259 -1.3189732e-15)
(36.45911 4.7936096 0)
(36.641406 3.7069348 -1.2843318e-15)
(36.664729 2.6835787 7.6273754e-17)
(36.571304 1.7298121 5.9920018e-16)
(36.386856 0.82736481 0)
(36.114264 -0.025474744 -2.3699709e-17)
(35.755662 -0.81796117 4.6597821e-17)
(35.321807 -1.5418249 1.800827e-15)
(34.831904 -2.193309 -1.6899081e-15)
(34.301821 -2.7798406 -2.961921e-15)
(33.726089 -3.3296672 2.5498678e-15)
(33.062898 -3.8914592 -9.5708475e-17)
(32.217423 -4.4430674 3.8672548e-15)
(31.163574 -4.8396586 5.1857996e-15)
(29.85305 -5.0059886 2.053806e-15)
(28.516929 -4.8115081 2.2395048e-17)
(26.790729 -4.6801952 -2.0941662e-17)
(18.178314 -2.4126977 5.1417563e-17)
(18.486368 -3.4150939 3.1960397e-16)
(18.949546 -4.5113659 2.3712888e-16)
(19.584036 -5.6552619 -4.5312993e-16)
(20.376883 -6.7452852 -1.0716499e-15)
(21.34849 -7.7681686 2.8716205e-16)
(22.479961 -8.6744676 4.7350528e-16)
(23.707651 -9.4021043 9.3527037e-16)
(24.974658 -9.9202996 2.3599275e-16)
(26.243249 -10.231317 -1.9543197e-16)
(27.470751 -10.347816 6.9234187e-17)
(28.619409 -10.290291 3.1358287e-17)
(29.671652 -10.087047 0)
(30.617671 -9.7698494 3.7244017e-17)
(31.45314 -9.3684875 2.135465e-16)
(32.182447 -8.9099758 -1.3419415e-16)
(32.81555 -8.4156905 1.3372916e-16)
(33.364778 -7.9012329 0)
(33.844876 -7.3745553 -3.4261925e-16)
(34.270553 -6.8364384 7.8889295e-16)
(34.653803 -6.2814155 0)
(35.001425 -5.6991949 -8.2932304e-16)
(35.312667 -5.0754718 0)
(35.574309 -4.3991769 5.907994e-17)
(35.759573 -3.6745789 -5.9608699e-17)
(35.847267 -2.91333 9.399874e-16)
(35.834358 -2.1400694 1.496002e-17)
(35.729971 -1.3700967 1.4158506e-17)
(35.540198 -0.61649638 -6.3760839e-18)
(35.270081 0.10457254 3.9111928e-16)
(34.930022 0.77919584 7.0053818e-16)
(34.53341 1.4020542 -1.2102854e-15)
(34.087737 1.9811334 -3.6815938e-17)
(33.578008 2.5395878 4.2984466e-17)
(32.933938 3.0925238 0)
(32.094963 3.5637148 -2.1728174e-17)
(30.99588 3.8608472 -1.3747609e-15)
(29.726619 3.8224889 -2.5271158e-17)
(27.960678 3.6862345 4.4971826e-15)
(19.163883 -1.1632771 2.4369651e-17)
(19.055847 -0.22243931 1.7226993e-16)
(19.053077 0.87010226 0)
(19.15827 2.0025254 1.1020424e-17)
(19.390675 3.1182208 -4.6420099e-16)
(19.769108 4.253276 0)
(20.28984 5.3580219 2.9140098e-16)
(20.95029 6.3959272 -1.5509087e-15)
(21.751171 7.3557975 1.5678953e-15)
(22.679734 8.2082237 -5.0719726e-16)
(23.723016 8.9307542 -3.8671354e-16)
(24.866636 9.5066917 -7.4740231e-16)
(26.087933 9.9169852 -3.1529086e-16)
(27.362138 10.147833 -1.0392477e-16)
(28.661078 10.190303 3.7950348e-17)
(29.95299 10.039453 2.3722927e-16)
(31.204793 9.6973383 4.5163665e-16)
(32.382767 9.1717854 5.4646378e-16)
(33.453926 8.4783908 -4.9691584e-16)
(34.387959 7.639493 -1.9284531e-15)
(35.158628 6.6860085 0)
(35.747443 5.6568077 7.2197331e-17)
(36.148159 4.5956557 1.1039776e-15)
(36.367535 3.550943 1.2259352e-15)
(36.429787 2.5581643 -6.9417584e-17)
(36.370353 1.627137 -5.304722e-16)
(36.213664 0.74821649 3.9796394e-18)
(35.965752 -0.079296965 -2.8527402e-16)
(35.630157 -0.84563475 2.9893135e-17)
(35.217475 -1.543068 -3.3703941e-15)
(34.746495 -2.170337 -4.6769512e-18)
(34.233125 -2.7377709 -4.5657207e-17)
(33.675713 -3.2732342 -2.4509448e-15)
(33.038534 -3.820086 -9.4153145e-17)
(32.229574 -4.3578522 -3.4403848e-15)
(31.212438 -4.7483557 -9.4848535e-15)
(29.962855 -4.9152136 1.783893e-15)
(28.60276 -4.713259 -1.3501383e-15)
(26.6121 -4.4493162 7.6383315e-15)
(19.345536 -2.1082302 -1.6425435e-16)
(19.612203 -3.0059173 -4.1374546e-16)
(20.015032 -3.9928173 -1.956581e-16)
(20.568057 -5.0273235 -3.5265129e-16)
(21.257812 -6.0163287 6.3990758e-16)
(22.104747 -6.9536373 -2.7771862e-17)
(23.094389 -7.7960172 -1.2258868e-15)
(24.170702 -8.4869385 -2.7143947e-16)
(25.285235 -8.9982723 4.098165e-17)
(26.408703 -9.3317343 0)
(27.50613 -9.4954781 -1.0535494e-16)
(28.545787 -9.5034087 5.0609016e-17)
(29.513909 -9.3759876 1.6529278e-17)
(30.401719 -9.1361216 4.940617e-17)
(31.203365 -8.8050247 -7.527019e-17)
(31.919805 -8.4029352 -7.5032303e-17)
(32.555887 -7.9471044 -4.6849993e-16)
(33.118878 -7.4517163 1.2961353e-16)
(33.618689 -6.9263575 3.2515856e-16)
(34.065922 -6.3756884 0)
(34.469524 -5.799239 6.9921112e-16)
(34.834542 -5.1915134 6.8995301e-16)
(35.159579 -4.542958 -4.7189187e-18)
(35.43341 -3.8434042 1.0290108e-16)
(35.634371 -3.0917943 5.4948483e-17)
(35.738747 -2.3232528 -9.0662591e-16)
(35.740463 -1.5678634 2.6125249e-17)
(35.646464 -0.84103395 -2.2629341e-16)
(35.463352 -0.15222431 -5.3350342e-17)
(35.197322 0.48841601 -3.5823329e-16)
(34.859277 1.0740029 -1.6929144e-17)
(34.462974 1.6071886 2.3652327e-15)
(34.017555 2.103935 1.941727e-15)
(33.513292 2.5930184 1.745451e-15)
(32.887192 3.090952 4.2524219e-17)
(32.077131 3.5233353 -1.8396228e-17)
(31.020018 3.7917166 1.1585731e-15)
(29.818852 3.7292665 -1.704496e-15)
(27.929019 3.4990134 -4.1777666e-15)
(20.19679 -0.99780009 -7.5835195e-17)
(20.102941 -0.14636539 -7.7809992e-17)
(20.10189 0.84015961 -4.539954e-16)
(20.196005 1.8619567 1.7135466e-15)
(20.400597 2.8657309 -7.4890961e-16)
(20.732985 3.8892449 6.4402624e-16)
(21.189703 4.8876351 -1.2040216e-15)
(21.768525 5.8285668 0)
(22.471639 6.7049558 -4.7004902e-16)
(23.288879 7.4907405 4.4225115e-17)
(24.2109 8.1663897 3.4114436e-16)
(25.227712 8.717378 6.5144156e-16)
(26.321347 9.1255647 1.0523114e-16)
(27.471925 9.3766469 0)
(28.655955 9.4599549 0)
(29.84547 9.3679031 0)
(31.010305 9.0992504 0)
(32.118914 8.6580485 -5.1480073e-16)
(33.139555 8.0560696 6.5507314e-16)
(34.042283 7.3118417 7.8235766e-16)
(34.800486 6.452577 -7.1687156e-16)
(35.394339 5.5132188 7.5298201e-16)
(35.815101 4.5338063 -8.6952793e-16)
(36.066396 3.5535058 -6.3284493e-17)
(36.165833 2.6059446 -3.1495905e-17)
(36.141956 1.7043239 5.3670144e-16)
(36.016998 0.8444554 1.1741922e-16)
(35.798602 0.027523987 0)
(35.490917 -0.73624211 0)
(35.103544 -1.4376047 3.9816267e-17)
(34.6538 -2.0735376 0)
(34.155829 -2.6514682 2.5329356e-15)
(33.607607 -3.1936714 -2.2891998e-15)
(32.980283 -3.7359468 -3.859484e-15)
(32.192551 -4.2614878 6.3174555e-15)
(31.209115 -4.6449194 4.3959011e-15)
(30.001244 -4.8068764 -1.6524238e-15)
(28.74029 -4.6112639 2.5548191e-15)
(26.72018 -4.2733715 -7.1412945e-15)
(20.35582 -1.8505974 0)
(20.588224 -2.6609146 1.2106897e-16)
(20.941295 -3.5557204 3.7267039e-16)
(21.427412 -4.497312 -1.2128065e-15)
(22.032953 -5.4001731 7.7989966e-16)
(22.778095 -6.262737 -4.498149e-16)
(23.651278 -7.0472456 4.0125312e-17)
(24.602523 -7.7018541 3.3703643e-16)
(25.589262 -8.2010266 2.4583218e-16)
(26.588452 -8.5468604 0)
(27.570904 -8.7456364 4.358333e-17)
(28.509557 -8.8076967 -9.1836196e-17)
(29.394157 -8.7491401 -2.7408883e-17)
(30.217526 -8.5877781 -3.5103606e-17)
(30.973628 -8.3399399 1.2764331e-16)
(31.661657 -8.0215507 1.7505235e-16)
(32.283217 -7.6470287 2.1635425e-16)
(32.841647 -7.2290225 0)
(33.343095 -6.7764529 0)
(33.794477 -6.2944609 0)
(34.202068 -5.7833137 -6.6371358e-16)
(34.569371 -5.2387297 0)
(34.894921 -4.6527181 6.1231992e-16)
(35.16927 -4.0183741 9.3362295e-17)
(35.373904 -3.3404647 7.8167303e-16)
(35.490255 -2.6308943 8.1409031e-16)
(35.510957 -1.9099941 0)
(35.440022 -1.192931 1.9080213e-16)
(35.282377 -0.49168852 5.5948784e-17)
(35.042708 0.17963307 -1.0688781e-17)
(34.729691 0.80888926 -1.2076919e-15)
(34.354457 1.3914056 -2.6842491e-17)
(33.923938 1.9341251 -1.8719127e-15)
(33.429274 2.4556736 1.536946e-15)
(32.814749 2.966981 0)
(32.026555 3.4025546 1.7545092e-17)
(30.995751 3.6718338 -7.9149898e-17)
(29.871661 3.6116924 1.6082854e-15)
(28.060002 3.3415965 -1.9551051e-17)
(21.099528 -0.85655124 6.123892e-17)
(21.018526 -0.081612126 0)
(21.020259 0.81421848 7.3192846e-16)
(21.106735 1.7409616 -7.263225e-16)
(21.290217 2.6487389 3.2808729e-16)
(21.586718 3.5755306 -5.8174414e-16)
(21.992539 4.4803195 5.2803148e-16)
(22.505396 5.3350398 4.3571697e-16)
(23.128312 6.1347109 0)
(23.852859 6.8568378 3.0562763e-16)
(24.672212 7.4848246 2.2917738e-16)
(25.579551 8.0060342 -2.3078267e-16)
(26.560704 8.403611 -4.4964789e-16)
(27.600184 8.663572 -3.722206e-17)
(28.678541 8.7744648 4.9616642e-17)
(29.771506 8.7269918 -1.207641e-16)
(30.852423 8.5172555 1.691783e-16)
(31.892222 8.1460461 1.9921951e-16)
(32.860912 7.621476 -1.1655603e-16)
(33.729353 6.9582525 1.7264007e-16)
(34.471173 6.1792693 5.1056146e-16)
(35.065661 5.3148055 1.0098339e-16)
(35.50177 4.400628 -1.1719051e-16)
(35.779453 3.4743656 -7.9371273e-16)
(35.911042 2.5680602 0)
(35.919087 1.6965458 -4.446291e-16)
(35.823226 0.86091568 -2.1942744e-16)
(35.632075 0.064224917 -2.0600765e-16)
(35.350488 -0.68358293 -7.7649547e-16)
(34.987336 -1.3733896 2.9608543e-15)
(34.558564 -2.0021541 1.2266468e-15)
(34.076633 -2.5767193 -1.5222762e-17)
(33.538343 -3.1154893 4.7427177e-17)
(32.918634 -3.6470479 0)
(32.145277 -4.1563385 -2.9433036e-15)
(31.187474 -4.5293958 0)
(30.005848 -4.6850618 0)
(28.811142 -4.4888892 -1.2103262e-15)
(26.910923 -4.1156498 3.2035421e-17)
(21.239061 -1.6307155 -1.6681614e-16)
(21.442756 -2.3668908 3.768304e-16)
(21.754219 -3.1826956 2.1186816e-17)
(22.184767 -4.0439094 2.8882365e-16)
(22.720993 -4.8718208 -6.6096857e-16)
(23.382216 -5.6679867 3.5142185e-16)
(24.159226 -6.3991248 -4.9065831e-17)
(25.006801 -7.0169001 -2.9596032e-16)
(25.887089 -7.4982199 -2.4179015e-16)
(26.78137 -7.8456505 -1.9760067e-16)
(27.664933 -8.0639869 -2.3798126e-16)
(28.514341 -8.161235 0)
(29.322384 -8.1503824 -3.869128e-18)
(30.083845 -8.0450841 1.7789796e-17)
(30.793334 -7.8572008 0)
(31.449508 -7.5984843 1.191491e-16)
(32.05226 -7.2794176 6.5311683e-17)
(32.602504 -6.9096459 9.2389673e-17)
(33.103326 -6.496305 -4.4701108e-16)
(33.558686 -6.0439483 -5.0152339e-16)
(33.972287 -5.5535731 7.3793635e-17)
(34.345918 -5.0227851 -5.872447e-16)
(34.677445 -4.4462724 -1.9973303e-16)
(34.958145 -3.8198679 8.3884038e-17)
(35.172351 -3.1459127 -6.9789776e-16)
(35.302421 -2.4436087 -4.5062266e-17)
(35.339535 -1.7366869 0)
(35.285449 -1.0416823 0)
(35.14429 -0.36998028 9.9253401e-18)
(34.920604 0.26702776 -2.8140542e-17)
(34.622363 0.86057876 1.1313044e-15)
(34.259636 1.4091201 -2.7076942e-17)
(33.838303 1.9215494 -1.7338043e-15)
(33.349871 2.4156802 -1.454329e-15)
(32.743437 2.9005156 -2.9929347e-17)
(31.971479 3.3136041 1.4507097e-17)
(30.96323 3.5665811 -1.8235092e-15)
(29.876128 3.4905171 -1.4843107e-15)
(28.203061 3.1903127 1.7814536e-17)
(21.89521 -0.73540647 2.4566105e-17)
(21.825594 -0.026900324 0)
(21.830547 0.79018881 -3.2107955e-16)
(21.911789 1.6346029 0)
(22.078862 2.4593798 5.1766252e-16)
(22.346636 3.3015253 -4.8212237e-16)
(22.711208 4.1240597 -4.1698033e-16)
(23.170023 4.9016511 -3.9978447e-16)
(23.726404 5.6315101 0)
(24.373104 6.2941085 2.9658747e-16)
(25.105 6.8753958 -2.2805364e-16)
(25.917603 7.3644656 3.7710728e-16)
(26.79973 7.7462713 1.5824618e-16)
(27.739238 8.0078879 9.9718521e-17)
(28.720319 8.137568 -1.1815377e-17)
(29.722495 8.1251712 1.134236e-16)
(30.722327 7.9649848 -2.3772559e-16)
(31.693563 7.6554396 -3.1827257e-16)
(32.608286 7.2015437 0)
(33.438857 6.6143492 1.5006135e-16)
(34.15951 5.9130088 -3.2681814e-16)
(34.749044 5.1237565 8.1050998e-17)
(35.194542 4.2788203 -5.5332341e-18)
(35.493229 3.4113139 1.8533023e-15)
(35.6529 2.5507343 -1.0498878e-16)
(35.690654 1.7127707 7.0081165e-17)
(35.623223 0.90213678 2.0118857e-16)
(35.459343 0.12398349 2.1936997e-16)
(35.204142 -0.61143011 6.6983394e-16)
(34.865617 -1.2943275 -1.3611506e-15)
(34.458397 -1.9201912 -1.1277549e-15)
(33.993595 -2.4944364 -4.4581532e-15)
(33.467246 -3.0314265 3.9036319e-15)
(32.857268 -3.5536086 -5.6114299e-17)
(32.099145 -4.0476388 2.6506462e-15)
(31.165079 -4.4099663 -7.4147829e-17)
(30.010908 -4.5610556 3.8123601e-17)
(28.845359 -4.3585862 3.3363763e-17)
(27.090608 -3.9608461 -5.7505742e-15)
(22.0178 -1.4415585 9.4104198e-17)
(22.197226 -2.1138959 -1.7495159e-16)
(22.473507 -2.8610951 2.6095835e-16)
(22.85708 -3.6523513 0)
(23.335172 -4.4143685 3.9341977e-16)
(23.926132 -5.151431 0)
(24.62237 -5.833442 0)
(25.382701 -6.4155765 0)
(26.17292 -6.8766322 4.0304757e-16)
(26.977495 -7.2197851 -1.3233701e-16)
(27.774958 -7.4489453 1.325917e-16)
(28.544914 -7.5705626 0)
(29.282518 -7.5956858 0)
(29.984279 -7.5354208 2.8737402e-17)
(30.645654 -7.3987574 0)
(31.265654 -7.1942615 -1.1259258e-16)
(31.843507 -6.929626 -1.8960132e-17)
(32.378428 -6.61224 0)
(32.871397 -6.2478399 3.1627063e-16)
(33.323931 -5.8405933 5.8251841e-16)
(33.737507 -5.3921361 4.8457776e-16)
(34.112259 -4.9014221 5.6265007e-16)
(34.445424 -4.3648777 -1.1658044e-15)
(34.72899 -3.7799523 0)