/*--------------------------------*- C++ -*----------------------------------*\
| =========                 |                                                 |
| \\      /  F ield         | OpenFOAM: The Open Source CFD Toolbox           |
|  \\    /   O peration     | Version:  2406                                  |
|   \\  /    A nd           | Website:  www.openfoam.com                      |
|    \\/     M anipulation  |                                                 |
\*---------------------------------------------------------------------------*/
FoamFile
{
    version     2.0;
    format      ascii;
    arch        "LSB;label=32;scalar=64";
    class       volVectorField;
    location    "100";
    object      U;
}
// * * * * * * * * * * * * * * * * * * * * * * * * * * * * * * * * * * * * * //

dimensions      [0 1 -1 0 0 0 0];

internalField   nonuniform List<vector> 
16045
(
(30.069322 -0.10464347 0)
(30.491947 -0.36487368 0)
(31.274692 -0.72860208 0)
(32.43962 -1.1918373 0)
(33.982505 -1.7595067 0)
(35.890887 -2.4422182 0)
(38.151409 -3.2475013 4.4933947e-21)
(40.761439 -4.1816167 0)
(43.736561 -5.2476784 0)
(47.099835 -6.4486591 0)
(50.858867 -7.7767446 0)
(54.984995 -9.2009257 0)
(59.403588 -10.652296 -2.9188107e-21)
(63.99579 -12.027475 0)
(68.608024 -13.206666 0)
(73.068023 -14.081479 0)
(77.202338 -14.577152 0)
(80.853418 -14.662455 1.2942103e-21)
(83.890145 -14.347303 1.3011341e-21)
(86.21315 -13.670512 0)
(87.754959 -12.68568 0)
(88.44933 -11.45414 0)
(88.279009 -10.017416 0)
(87.212012 -8.4301621 0)
(85.098367 -6.7057385 -3.0630106e-21)
(82.102984 -4.588926 0)
(78.650495 -2.3157897 -3.1990144e-21)
(74.210669 0.1140394 -2.1333355e-22)
(69.417112 5.8689255 -3.4487789e-22)
(67.402941 13.336629 1.6092941e-22)
(60.730417 16.379353 4.0367205e-22)
(38.161853 12.069225 2.0434927e-23)
(-22.343354 -4.0132514 -6.2784038e-22)
(-39.327808 -8.2705673 6.7853979e-21)
(-48.280018 -9.9973649 -3.4660022e-22)
(-54.895884 -11.158877 -7.4210865e-24)
(-60.033656 -12.417013 2.5712138e-22)
(-63.743142 -13.594935 0)
(-66.512272 -14.547867 2.342875e-22)
(-69.867736 -15.683719 3.4259033e-21)
(-73.366809 -17.263694 0)
(-76.433691 -18.975806 0)
(-78.94854 -20.741043 3.3479343e-21)
(-80.805063 -22.56262 0)
(-81.793098 -24.318635 3.0940317e-21)
(-81.834982 -25.916281 0)
(-80.938699 -27.279956 0)
(-79.185255 -28.359753 0)
(-76.704397 -29.134438 0)
(-73.651412 -29.599651 0)
(-70.18533 -29.774969 0)
(-66.453822 -29.693179 0)
(-62.583701 -29.40201 0)
(-58.681206 -28.943802 0)
(-54.828611 -28.36147 0)
(-51.090457 -27.685265 0)
(-47.512622 -26.944615 0)
(-44.12813 -26.157819 -1.3566096e-21)
(-40.953445 -25.345065 0)
(-37.99619 -24.51949 0)
(-35.256135 -23.697488 0)
(-32.732985 -22.886713 0)
(-30.421086 -22.094131 0)
(-28.312694 -21.318929 0)
(-26.396637 -20.563758 0)
(-24.662133 -19.826766 0)
(-23.095289 -19.110298 -6.6728945e-22)
(-21.683979 -18.414476 0)
(-20.41608 -17.74092 0)
(-19.281124 -17.087073 0)
(-18.2658 -16.452534 0)
(-17.357362 -15.8375 0)
(-16.546017 -15.245054 0)
(-15.822681 -14.675058 0)
(-15.17974 -14.128991 0)
(-14.612144 -13.604118 0)
(-14.113864 -13.096831 0)
(-13.686835 -12.605006 0)
(-13.340771 -12.120465 0)
(-13.092296 -11.635303 0)
(-12.968739 -11.154308 0)
(-12.989017 -10.701732 0)
(-13.155736 -10.317687 0)
(-13.449561 -10.021432 0)
(-13.824967 -9.8035157 0)
(-14.241048 -9.6489174 0)
(-14.675919 -9.547493 0)
(-15.141911 -9.5112834 0)
(-15.676265 -9.5528868 0)
(-16.295009 -9.6645775 0)
(-16.992551 -9.7879219 0)
(-17.69822 -9.7680833 0)
(-18.235427 -9.381809 0)
(-18.371421 -8.3983735 0)
(-18.030433 -6.7365393 0)
(-17.395428 -4.6721599 0)
(-16.410207 -2.7557836 0)
(-14.88732 -1.2574353 0)
(-12.380259 -0.10083181 0)
(-9.0413979 0.65838762 0)
(30.045444 -0.30855795 0)
(30.358524 -0.98146478 0)
(31.027878 -1.8250508 5.7020656e-21)
(32.097999 -2.8016177 0)
(33.566543 -3.8944716 0)
(35.424276 -5.0946914 0)
(37.664938 -6.3951436 -4.2818752e-21)
(40.298029 -7.7956376 0)
(43.357482 -9.3076452 -3.6185473e-21)
(46.886 -10.948299 0)
(50.902487 -12.715569 0)
(55.376794 -14.558788 0)
(60.221475 -16.361768 2.7175752e-21)
(65.293107 -17.95698 0)
(70.403064 -19.166028 0)
(75.338814 -19.846785 0)
(79.891027 -19.923041 3.6372364e-21)
(83.877801 -19.388454 -1.1918067e-21)
(87.158399 -18.29261 -2.4437683e-21)
(89.635788 -16.716133 2.5081107e-21)
(91.252367 -14.747856 0)
(91.967807 -12.475773 0)
(91.79484 -9.962311 -5.5719181e-21)
(90.790126 -7.248588 -2.920731e-21)
(88.942995 -4.287828 3.0487463e-21)
(86.39863 -0.7601374 0)
(83.20291 3.542848 3.1529257e-21)
(78.687362 7.8766792 0)
(73.187029 13.075 0)
(70.207891 20.607041 0)
(65.621901 25.376334 -7.1884963e-22)
(48.655591 21.494914 9.2148368e-22)
(19.468085 13.139623 0)
(1.4355584 7.4749588 -7.574584e-21)
(-12.496576 3.3066236 -3.7868108e-21)
(-24.093689 0.64594055 0)
(-32.942199 -1.6571519 -9.3644941e-22)
(-42.717706 -3.8279437 -7.2142615e-24)
(-52.505691 -6.6121887 5.9713229e-22)
(-57.147841 -9.4630843 -2.0051885e-23)
(-61.739453 -12.197679 0)
(-65.601677 -14.881518 0)
(-68.382716 -17.509391 1.1746253e-23)
(-70.445269 -20.4524 0)
(-71.510172 -23.443121 -3.5379188e-21)
(-71.526602 -26.299248 0)
(-70.54985 -28.833436 3.143862e-21)
(-68.719575 -30.922832 0)
(-66.214143 -32.506894 0)
(-63.214269 -33.574331 -2.5589868e-21)
(-59.885797 -34.153031 2.3842016e-21)
(-56.37298 -34.30031 0)
(-52.796835 -34.089659 0)
(-49.247869 -33.598034 0)
(-45.792054 -32.897865 -8.4264696e-22)
(-42.475633 -32.047597 -7.7513797e-22)
(-39.334267 -31.092616 0)
(-36.388393 -30.068885 1.4433335e-21)
(-33.647242 -29.006261 0)
(-31.110818 -27.928609 0)
(-28.779666 -26.855723 0)
(-26.649863 -25.800846 -1.0600306e-21)
(-24.713969 -24.77165 0)
(-22.960611 -23.771223 0)
(-21.379151 -22.80306 0)
(-19.958131 -21.868113 0)
(-18.687371 -20.966264 7.1359222e-22)
(-17.555799 -20.096823 0)
(-16.552371 -19.259845 0)
(-15.666151 -18.454481 0)
(-14.886996 -17.678846 -4.9629782e-22)
(-14.204944 -16.9322 0)
(-13.612327 -16.215306 0)
(-13.102113 -15.52817 0)
(-12.669715 -14.871232 0)
(-12.310701 -14.240811 0)
(-12.020612 -13.630523 0)
(-11.800992 -13.033751 0)
(-11.658955 -12.436268 0)
(-11.609272 -11.819706 0)
(-11.674994 -11.180618 0)
(-11.869785 -10.554327 0)
(-12.189297 -10.013921 0)
(-12.61522 -9.6106395 0)
(-13.110147 -9.3448706 0)
(-13.625278 -9.1832688 0)
(-14.116543 -9.0779953 0)
(-14.559852 -8.9950367 0)
(-14.956311 -8.9235621 0)
(-15.346305 -8.8840801 0)
(-15.816776 -8.9106086 0)
(-16.432333 -8.9880238 0)
(-17.170502 -9.0077239 0)
(-17.9463 -8.7407972 0)
(-18.531438 -7.9282197 0)
(-18.723605 -6.5583603 0)
(-18.436953 -4.9255155 0)
(-17.801409 -3.3376968 0)
(-16.489121 -1.9551897 0)
(-14.190759 -1.0178796 0)
(30.037819 -0.49201055 0)
(30.315206 -1.4612276 0)
(30.961299 -2.5886388 -5.5584525e-21)
(32.029323 -3.8249673 0)
(33.518371 -5.1567578 0)
(35.421653 -6.5783166 0)
(37.740203 -8.0911848 -2.0217248e-21)
(40.497617 -9.7124882 1.8286682e-21)
(43.74374 -11.475912 3.3751544e-21)
(47.525601 -13.409408 0)
(51.855409 -15.50432 0)
(56.699865 -17.68203 0)
(61.970647 -19.776363 -2.4997519e-21)
(67.509048 -21.554855 0)
(73.08958 -22.783913 0)
(78.453485 -23.296394 -1.1236688e-21)
(83.353028 -23.025559 -3.3716968e-21)
(87.585204 -21.99818 0)
(91.006092 -20.30577 2.3483413e-21)
(93.527811 -18.069176 -2.3954486e-21)
(95.108021 -15.410462 1.2566673e-21)
(95.740388 -12.446173 -2.6198072e-21)
(95.480686 -9.2669146 -1.4477536e-21)
(94.45845 -5.9294306 -2.9757174e-21)
(92.695716 -2.4076558 0)
(90.224253 1.5596541 -6.1118096e-21)
(87.266246 6.2224492 0)
(83.373001 11.356404 -5.8227971e-21)
(78.537166 17.587881 0)
(75.354469 25.760522 -6.2478439e-21)
(72.786787 32.038593 -1.2370543e-21)
(64.444507 31.998389 0)
(47.976019 26.027743 -8.7862855e-22)
(29.442305 18.832444 1.156845e-21)
(13.606023 13.727991 0)
(2.5659253 10.940346 -9.5812967e-21)
(-6.110568 8.586998 -4.8265548e-21)
(-7.2950966 9.3374061 4.8706733e-21)
(-29.970362 4.547628 0)
(-37.691011 0.011000046 -4.6103938e-23)
(-50.057562 -4.1184407 5.4430364e-21)
(-59.162982 -9.7149993 -4.972432e-21)
(-62.357147 -13.710107 -4.6677934e-21)
(-64.679596 -17.644288 8.7731476e-21)
(-65.644236 -21.542024 4.0557795e-21)
(-65.46975 -25.352345 0)
(-64.219119 -28.787271 3.5056788e-21)
(-62.109993 -31.644958 -3.1820228e-21)
(-59.387701 -33.835353 -1.4031264e-21)
(-56.26619 -35.351148 4.0912848e-21)
(-52.916836 -36.235491 -2.4929684e-21)
(-49.480083 -36.564663 0)
(-46.060849 -36.433834 0)
(-42.730076 -35.94666 0)
(-39.538687 -35.197066 0)
(-36.522892 -34.260915 9.1461943e-22)
(-33.702278 -33.192687 1.0276973e-22)
(-31.085624 -32.041056 2.2738898e-21)
(-28.671391 -30.844104 0)
(-26.455983 -29.632234 0)
(-24.435805 -28.425979 0)
(-22.605192 -27.240755 1.0998976e-21)
(-20.953027 -26.084639 -1.0112265e-21)
(-19.467486 -24.964147 0)
(-18.137003 -23.883083 -8.6190221e-22)
(-16.951313 -22.843683 0)
(-15.90015 -21.844783 0)
(-14.974 -20.884593 0)
(-14.162745 -19.960878 0)
(-13.457057 -19.073745 0)
(-12.847997 -18.221872 5.154005e-22)
(-12.327794 -17.404089 0)
(-11.889492 -16.618631 -4.2271273e-22)
(-11.527598 -15.864742 0)
(-11.239151 -15.141225 0)
(-11.021944 -14.445193 0)
(-10.873818 -13.771604 0)
(-10.795815 -13.111062 0)
(-10.795804 -12.445929 0)
(-10.89127 -11.750868 0)
(-11.103632 -11.013841 0)
(-11.430771 -10.280155 0)
(-11.848183 -9.6467597 0)
(-12.344198 -9.1814571 0)
(-12.899382 -8.8898654 0)
(-13.48127 -8.7375865 0)
(-14.060571 -8.6773069 0)
(-14.616264 -8.6640707 0)
(-15.125549 -8.6529603 0)
(-15.567177 -8.60501 0)
(-15.943143 -8.5029705 0)
(-16.282195 -8.3544911 0)
(-16.654873 -8.1655509 0)
(-17.115014 -7.8805229 0)
(-17.598812 -7.3820168 0)
(-18.043159 -6.5779949 0)
(-18.326815 -5.4144981 0)
(-18.268624 -4.0499159 0)
(-17.406516 -2.7829549 0)
(-15.668068 -2.0615006 0)
(30.035975 -0.6533887 0)
(30.295846 -1.9127024 0)
(30.924114 -3.3693019 0)
(31.992102 -4.9571858 0)
(33.512353 -6.6565243 0)
(35.487918 -8.4554267 0)
(37.933397 -10.358229 0)
(40.892616 -12.394655 0)
(44.420943 -14.599413 0)
(48.549031 -16.990157 0)
(53.287244 -19.551676 0)
(58.630485 -22.189527 0)
(64.505593 -24.677789 3.4184377e-21)
(70.715621 -26.692748 1.0763479e-21)
(76.956815 -27.927141 0)
(82.892322 -28.191634 6.3254326e-21)
(88.224032 -27.446138 -2.1284786e-21)
(92.731154 -25.771024 5.4356915e-21)
(96.276153 -23.317849 -3.3038763e-21)
(98.790749 -20.260753 0)
(100.25799 -16.766211 -4.8994779e-21)
(100.71578 -12.99034 2.5372808e-21)
(100.27846 -9.0673113 5.3793686e-21)
(99.107367 -5.0636842 -1.2287508e-22)
(97.190361 -0.9130806 0)
(94.487959 3.5645573 7.0972422e-21)
(91.327926 8.4821302 -7.0384587e-21)
(87.652336 13.685395 5.3160695e-21)
(83.200092 19.676414 0)
(79.834693 27.465489 -1.6309241e-22)
(78.779123 35.016486 2.1666476e-21)
(76.225339 38.04464 1.1471561e-21)
(68.470802 35.268788 3.9396157e-21)
(56.964982 29.595009 0)
(45.643877 24.088287 0)
(37.675029 19.647472 4.2550337e-21)
(34.082559 16.462454 0)
(34.253944 15.821594 -1.5004155e-21)
(27.643203 15.232644 1.9887783e-21)
(26.024258 15.334093 -1.1538402e-20)
(-11.531942 12.248879 -2.0429949e-23)
(-47.96485 -0.75015815 -1.1249967e-20)
(-55.004331 -8.0219385 1.4448941e-20)
(-58.374479 -14.746713 1.6194935e-22)
(-59.212462 -20.294065 4.952142e-21)
(-58.658128 -25.378236 8.6398455e-21)
(-56.950462 -29.869741 1.7588272e-22)
(-54.417754 -33.535651 3.4476135e-21)
(-51.38252 -36.30198 -6.4234629e-21)
(-48.079742 -38.194873 0)
(-44.687071 -39.295518 0)
(-41.331814 -39.712544 -4.9745163e-21)
(-38.091441 -39.575257 0)
(-35.018305 -39.011119 0)
(-32.146397 -38.137023 0)
(-29.489365 -37.043844 0)
(-27.048237 -35.802277 0)
(-24.818043 -34.469328 -1.5655149e-21)
(-22.78971 -33.092082 -3.5711767e-21)
(-20.952374 -31.702289 2.0597571e-21)
(-19.296748 -30.324589 -1.2415961e-21)
(-17.81326 -28.974288 -1.149481e-21)
(-16.490763 -27.662603 1.070183e-21)
(-15.316401 -26.395613 0)
(-14.278282 -25.178442 6.5051989e-24)
(-13.36664 -24.011555 -8.340816e-22)
(-12.571688 -22.894341 0)
(-11.884398 -21.823621 0)
(-11.29664 -20.796833 0)
(-10.800771 -19.812487 0)
(-10.389877 -18.869506 0)
(-10.0576 -17.964971 0)
(-9.7988344 -17.096119 4.4677151e-22)
(-9.6103428 -16.260235 -3.9911563e-22)
(-9.4899528 -15.454131 0)
(-9.437248 -14.675215 0)
(-9.4545273 -13.91881 0)
(-9.5436756 -13.173534 0)
(-9.7139004 -12.419478 0)
(-9.9901241 -11.624226 0)
(-10.393994 -10.769384 0)
(-10.894247 -9.9181274 0)
(-11.429172 -9.2010038 0)
(-11.995232 -8.6962323 0)
(-12.595334 -8.3930006 0)
(-13.202559 -8.2383949 0)
(-13.786679 -8.1781694 0)
(-14.344184 -8.1779535 0)
(-14.885718 -8.2100461 0)
(-15.40479 -8.2356055 0)
(-15.878426 -8.2082266 0)
(-16.281661 -8.0817031 0)
(-16.60603 -7.8213463 0)
(-16.854631 -7.4138157 0)
(-17.024372 -6.8782899 0)
(-17.14054 -6.2189548 0)
(-17.167546 -5.3762507 0)
(-16.971609 -4.4214014 0)
(-16.239316 -3.5617876 0)
(-14.760048 -3.2037918 0)
(30.035458 -0.80863357 0)
(30.283561 -2.3570906 0)
(30.912832 -4.1527251 0)
(32.011416 -6.0991568 0)
(33.60553 -8.1679704 0)
(35.708697 -10.349773 3.8874351e-21)
(38.359246 -12.668105 0)
(41.618934 -15.156816 0)
(45.518453 -17.82346 0)
(50.069994 -20.683551 -2.6161578e-21)
(55.340084 -23.764154 2.3983955e-21)
(61.399438 -26.963742 -4.4433526e-21)
(68.15914 -29.940964 -2.0798533e-21)
(75.304577 -32.219592 0)
(82.391544 -33.40232 -1.9629977e-21)
(88.985972 -33.301376 -2.8762634e-21)
(94.75174 -31.938118 1.9906144e-21)
(99.474081 -29.47546 -9.1315961e-21)
(103.04457 -26.141769 -4.2831669e-21)
(105.42981 -22.172264 -3.3856422e-21)
(106.64946 -17.783058 3.494245e-21)
(106.79583 -13.174402 -5.094381e-21)
(106.04648 -8.5145989 0)
(104.54873 -3.8571053 5.6510026e-21)
(102.25808 0.89849975 -5.7062176e-21)
(99.18948 5.8718522 1.110221e-20)
(95.601077 11.147665 5.2301179e-21)
(91.700391 16.550822 0)
(87.271584 22.092925 0)
(83.453667 28.633232 -1.7085083e-22)
(82.164908 35.659106 5.6279919e-21)
(81.807695 40.100862 -2.2087954e-21)
(79.059626 39.937676 -8.1663878e-21)
(73.542718 36.403043 -3.9277178e-21)
(67.092664 31.661752 2.9370265e-21)
(61.3933 26.902758 1.2924102e-23)
(57.289187 23.065615 -1.9273105e-21)
(54.846302 20.692765 -4.4037067e-21)
(52.26229 19.686029 0)
(46.676676 21.565544 6.5624263e-21)
(22.53822 23.144839 8.4768564e-21)
(-2.328122 20.155421 6.1831365e-20)
(-43.088048 5.0837404 -3.1861888e-20)
(-51.357628 -9.3016319 4.3238339e-22)
(-53.680227 -18.53937 -3.7728499e-20)
(-52.205263 -25.717194 2.9000478e-22)
(-49.644801 -31.35976 -8.6851138e-21)
(-46.424885 -35.790162 7.9169001e-21)
(-42.895257 -39.036119 6.9494061e-21)
(-39.322452 -41.182838 0)
(-35.873069 -42.373647 5.881431e-21)
(-32.619155 -42.776515 1.0711951e-20)
(-29.598523 -42.553749 4.9483104e-21)
(-26.834227 -41.854338 4.5570096e-21)
(-24.330547 -40.807392 0)
(-22.076034 -39.523293 0)
(-20.054469 -38.085765 -3.5948799e-21)
(-18.248208 -36.56085 0)
(-16.640719 -34.996953 3.0945025e-21)
(-15.213516 -33.430852 -1.4340954e-21)
(-13.952858 -31.887846 1.3286413e-21)
(-12.845738 -30.384473 1.2299963e-21)
(-11.878927 -28.929766 -1.1297583e-21)
(-11.038095 -27.530801 -1.0430015e-21)
(-10.311994 -26.191616 9.6893466e-22)
(-9.6913407 -24.912914 7.3009269e-24)
(-9.167744 -23.692328 0)
(-8.7331637 -22.526834 -7.4417589e-22)
(-8.3811278 -21.411929 0)
(-8.105871 -20.345351 0)
(-7.9023529 -19.324433 0)
(-7.7658136 -18.345597 0)
(-7.6940289 -17.405044 0)
(-7.6860221 -16.4985 4.2476335e-22)
(-7.7406663 -15.619894 -3.7594382e-22)
(-7.8589318 -14.764388 0)
(-8.0471493 -13.927262 0)
(-8.3117352 -13.096147 0)
(-8.6661301 -12.2488 0)
(-9.1466258 -11.346546 0)
(-9.7839879 -10.367571 0)
(-10.498681 -9.4028146 0)
(-11.151617 -8.6283355 0)
(-11.767175 -8.1231187 0)
(-12.40148 -7.8481532 0)
(-13.039042 -7.7311572 0)
(-13.636701 -7.7055282 0)
(-14.175218 -7.7232039 0)
(-14.668915 -7.7585699 0)
(-15.128108 -7.793651 0)
(-15.553815 -7.8028381 0)
(-15.936678 -7.7433616 0)
(-16.249991 -7.561804 0)
(-16.452288 -7.2137846 0)
(-16.509414 -6.6976419 0)
(-16.432628 -6.0508161 0)
(-16.18114 -5.3337547 0)
(-15.666549 -4.6558933 0)
(-14.723588 -4.1620763 0)
(-13.179894 -4.1199331 0)
(30.03639 -0.96207371 0)
(30.27855 -2.8032174 0)
(30.918629 -4.9550242 0)
(32.066159 -7.2919441 0)
(33.760332 -9.7787579 0)
(36.038327 -12.424169 -3.6585971e-21)
(38.978472 -15.270489 3.253406e-21)
(42.630046 -18.305201 -2.9181599e-21)
(46.971996 -21.488862 0)
(52.070271 -24.91537 2.3881228e-21)
(58.146961 -28.714454 -4.3490158e-21)
(65.323272 -32.701628 8.0187263e-21)
(73.357253 -36.289359 0)
(81.699204 -38.793867 4.5696772e-21)
(89.731429 -39.763522 1.8041592e-21)
(96.950893 -39.07809 -8.7975879e-22)
(103.03106 -36.875067 0)
(107.80774 -33.431015 -1.0868179e-22)
(111.23492 -29.060731 5.006734e-21)
(113.33323 -24.060367 -1.1977388e-21)
(114.16867 -18.692662 9.3651736e-21)
(113.89488 -13.200109 7.3559945e-21)
(112.73253 -7.7740702 -1.3551484e-20)
(110.74919 -2.4343917 0)
(107.91123 2.9489963 1.4908069e-20)
(104.32009 8.4482535 -8.9978284e-21)
(100.16533 14.11823 -1.0391562e-20)
(95.767887 19.851354 -2.4793532e-21)
(91.081231 25.347395 4.8998787e-24)
(86.506755 30.922174 -2.7058076e-22)
(83.778136 36.661558 -6.7216921e-21)
(82.851556 40.926988 -2.2667492e-21)
(81.55116 42.037746 9.3359402e-21)
(78.874537 40.194495 4.9881999e-21)
(75.026142 36.418763 0)
(71.128823 32.021933 -1.5341722e-21)
(67.989377 28.382679 1.6873596e-21)
(65.24209 25.882963 7.4221676e-21)
(61.284197 24.671414 0)
(52.695889 26.192457 -2.4921933e-21)
(33.170638 28.714458 -2.920193e-20)
(2.8888579 30.166926 1.2677879e-22)
(-34.29637 19.452921 0)
(-46.260074 0.74667728 8.4727017e-22)
(-48.944935 -15.573042 -1.3110972e-21)
(-46.572812 -26.815976 -1.5589681e-20)
(-42.141441 -33.647734 2.617649e-21)
(-37.742545 -38.68817 -8.7656242e-21)
(-33.514117 -42.240443 0)
(-29.637161 -44.461289 1.4325217e-20)
(-26.172445 -45.572945 -6.3882966e-21)
(-23.09934 -45.824969 -1.7662513e-20)
(-20.38579 -45.419397 -5.3653465e-21)
(-18.013019 -44.519221 -4.9402748e-21)
(-15.950437 -43.261257 0)
(-14.166185 -41.757418 4.2127647e-21)
(-12.62702 -40.105039 7.7961804e-21)
(-11.300739 -38.378578 0)
(-10.161232 -36.627272 3.3315578e-21)
(-9.1845135 -34.888246 0)
(-8.3520067 -33.187282 0)
(-7.6491877 -31.539914 -1.3182137e-21)
(-7.0598117 -29.953847 1.2281963e-21)
(-6.5696558 -28.434819 1.0520224e-23)
(-6.1700883 -26.986449 -1.0339479e-21)
(-5.8545154 -25.608572 9.6008954e-22)
(-5.6155592 -24.297999 -8.7142344e-22)
(-5.4469778 -23.050836 8.0657931e-22)
(-5.3421217 -21.861477 -7.277373e-22)
(-5.2967699 -20.725645 0)
(-5.3089997 -19.639149 -6.0091245e-22)
(-5.3759383 -18.596449 0)
(-5.4972083 -17.593418 0)
(-5.6750075 -16.62538 0)
(-5.9109602 -15.683709 4.0445825e-22)
(-6.2069553 -14.758366 -3.5375272e-22)
(-6.5725441 -13.843273 0)
(-7.0211354 -12.924118 0)
(-7.5731586 -11.974668 0)
(-8.2840499 -10.951205 0)
(-9.2133905 -9.8320723 0)
(-10.203712 -8.7580849 0)
(-10.972054 -7.9610057 0)
(-11.595602 -7.4978043 0)
(-12.23139 -7.2759418 0)
(-12.873645 -7.2085495 0)
(-13.484859 -7.2370242 0)
(-14.030945 -7.3092261 0)
(-14.512825 -7.3889746 0)
(-14.936477 -7.4555396 0)
(-15.302003 -7.4904225 0)
(-15.609533 -7.4714061 0)
(-15.847341 -7.3667952 0)
(-15.989696 -7.1344758 0)
(-16.00565 -6.7451206 0)
(-15.882892 -6.2018238 0)
(-15.582746 -5.5674086 0)
(-15.03893 -4.9824768 0)
(-14.14931 -4.630543 0)
(-12.7036 -4.6907317 0)
(30.036779 -1.1202206 0)
(30.27087 -3.2566641 0)
(30.933418 -5.7863748 0)
(32.146691 -8.5477303 4.3493509e-21)
(33.968508 -11.50821 0)
(36.486191 -14.719095 3.3926873e-21)
(39.809975 -18.20439 -3.0168012e-21)
(43.922856 -21.84054 2.6854715e-21)
(48.808392 -25.619559 0)
(54.748234 -29.85333 0)
(62.13848 -34.716548 1.9468986e-21)
(70.951265 -39.716431 -6.2582307e-21)
(80.587183 -43.883823 2.5765257e-21)
(90.20247 -46.371552 -2.4100169e-21)
(99.057156 -46.790882 -3.2755408e-21)
(106.65894 -45.185794 -8.1426003e-22)
(112.75711 -41.861287 0)
(117.28603 -37.223764 3.5913855e-21)
(120.29693 -31.671685 0)
(121.89084 -25.548261 3.0524943e-21)
(122.20503 -19.149998 -5.4868542e-21)
(121.46429 -12.746027 7.6255824e-21)
(119.87772 -6.5208252 -3.1268864e-21)
(117.34607 -0.4482305 5.301537e-21)
(113.89159 5.6009166 -2.3291104e-20)
(109.66701 11.626452 7.7929475e-21)
(104.85774 17.63093 1.2150103e-20)
(99.82443 23.57568 -2.4136604e-21)
(94.672578 29.167139 2.3834632e-21)
(89.315892 34.359353 1.8804109e-20)
(84.883329 39.250908 0)
(82.057624 43.045054 0)
(80.140961 44.5415 5.0848583e-21)
(77.952861 43.420455 -2.5863722e-21)
(75.514914 40.274909 5.6378169e-21)
(73.549277 36.61713 0)
(71.928646 33.933172 0)
(70.288568 32.869206 -6.9373301e-21)
(65.36024 33.012153 1.904217e-21)
(56.152403 34.839654 -2.1867519e-21)
(33.584118 37.5536 2.1956212e-20)
(-0.8789838 36.335413 -1.4753131e-20)
(-34.694191 23.672865 0)
(-47.292798 2.7097855 -1.959798e-20)
(-44.966057 -11.742573 5.7162201e-20)
(-42.344048 -28.703555 0)
(-34.467078 -36.392966 2.4619131e-20)
(-28.278305 -41.702956 0)
(-23.202302 -45.306509 0)
(-19.036896 -47.449616 -1.5868177e-20)
(-15.577917 -48.396175 1.4540381e-20)
(-12.721168 -48.430022 1.1535847e-20)
(-10.384605 -47.785001 3.0090917e-21)
(-8.4791454 -46.646454 9.5158388e-21)
(-6.9447698 -45.160799 1.0078583e-20)
(-5.7173814 -43.431102 -4.6572678e-21)
(-4.736572 -41.567927 -4.2989586e-21)
(-3.954381 -39.656376 3.9411138e-21)
(-3.3350037 -37.742908 -3.2981204e-23)
(-2.8510498 -35.85929 0)
(-2.4813614 -34.029076 0)
(-2.2098649 -32.266808 1.4499273e-21)
(-2.0223377 -30.580709 0)
(-1.9071474 -28.973493 1.5653696e-23)
(-1.856589 -27.445284 3.3816769e-21)
(-1.8645397 -25.994414 -1.0307204e-21)
(-1.9249759 -24.617878 9.5779202e-22)
(-2.0339838 -23.311564 0)
(-2.1874617 -22.069981 1.2294152e-23)
(-2.3835898 -20.886602 -7.1395367e-22)
(-2.6227852 -19.754773 6.5792066e-22)
(-2.9037149 -18.666418 0)
(-3.2262452 -17.617016 0)
(-3.5945633 -16.602762 0)
(-4.015953 -15.61345 0)
(-4.4934356 -14.632409 3.8512478e-22)
(-5.037559 -13.649192 -3.3238729e-22)
(-5.6716794 -12.645512 0)
(-6.4278276 -11.588206 0)
(-7.3885778 -10.423851 0)
(-8.6646714 -9.1421438 0)
(-10.018097 -7.9621341 0)
(-10.907082 -7.1928095 0)
(-11.492314 -6.8254204 0)
(-12.106858 -6.6930957 0)
(-12.726729 -6.687209 0)
(-13.322487 -6.763286 0)
(-13.858352 -6.8864525 0)
(-14.324745 -7.0204652 0)
(-14.728558 -7.1407743 0)
(-15.062018 -7.2270154 0)
(-15.318312 -7.259877 0)
(-15.487223 -7.2168752 0)
(-15.556105 -7.0680867 0)
(-15.505836 -6.7902138 0)
(-15.327907 -6.3793763 0)
(-14.992485 -5.8691272 0)
(-14.455028 -5.3729177 0)
(-13.637244 -5.0783836 0)
(-12.235788 -5.1408253 0)
(30.039438 -1.2797621 0)
(30.270908 -3.7138592 0)
(30.956951 -6.6480488 2.3807251e-21)
(32.243156 -9.8777802 -6.2485152e-21)
(34.219997 -13.401366 0)
(37.052221 -17.321017 -3.1643623e-21)
(40.830814 -21.553341 -2.7537406e-21)
(45.478222 -25.878283 0)
(51.181622 -30.518922 0)
(58.548243 -36.030549 0)
(67.917259 -42.33038 8.8063252e-22)
(78.789706 -48.351697 -8.2266283e-22)
(90.10265 -52.775463 -2.9955257e-21)
(100.80216 -54.777196 -3.024526e-21)
(110.14846 -54.18823 -3.9588626e-21)
(117.74739 -51.29302 7.6321052e-22)
(123.47236 -46.580994 0)
(127.37625 -40.575866 0)
(129.61289 -33.740982 0)
(130.38093 -26.452062 -6.4659545e-21)
(129.94052 -19.012959 -2.2469508e-21)
(128.63166 -11.691351 -1.7447525e-20)
(126.60002 -4.6526405 7.7439832e-21)
(123.62144 2.1765094 -1.3125329e-20)
(119.70872 8.8886412 1.2287654e-20)
(114.96155 15.426157 -9.5643489e-21)
(109.53993 21.752278 -1.9644133e-20)
(103.79421 27.845781 0)
(97.982868 33.500855 4.6837317e-21)
(91.889819 38.580976 -1.3866325e-20)
(85.936749 43.232406 -2.3552613e-21)
(80.884783 46.995293 4.7978443e-21)
(77.165791 48.640594 -2.0155767e-20)
(74.096185 47.629966 -2.722432e-21)
(72.290447 44.798591 -5.9301188e-21)
(71.141998 42.148367 3.2916003e-21)
(69.078412 40.806198 0)
(66.988715 41.698354 1.9447839e-21)
(57.974195 42.9205 2.226944e-21)
(44.296363 43.588659 0)
(18.454578 44.836698 1.2249391e-20)
(-15.278302 36.626935 2.4055423e-20)
(-40.026404 18.843202 3.368014e-20)
(-50.538273 -3.0629796 0)
(-45.254302 -16.194443 0)
(-39.862324 -31.947334 -3.8464393e-20)
(-26.296811 -39.27789 -2.8274023e-20)
(-17.562884 -44.387709 0)
(-11.410307 -47.717837 0)
(-6.9826249 -49.597504 1.8138821e-20)
(-3.7427681 -50.318209 -1.6237428e-20)
(-1.4135452 -50.122033 1.4905245e-20)
(0.25109126 -49.250533 1.3705747e-20)
(1.4530981 -47.906573 1.4109908e-21)
(2.2910544 -46.244207 -1.1967993e-20)
(2.8999111 -44.362513 -1.4362199e-21)
(3.3429604 -42.355313 0)
(3.6089898 -40.309455 -4.3608964e-21)
(3.7274404 -38.277178 -3.9460746e-21)
(3.728931 -36.290629 0)
(3.637201 -34.370826 3.2136081e-21)
(3.4714923 -32.530809 2.9339534e-21)
(3.2452603 -30.777653 2.6845237e-21)
(2.9679134 -29.113473 1.2522633e-21)
(2.649114 -27.536292 -4.0624026e-23)
(2.2969967 -26.042969 3.1373333e-21)
(1.915867 -24.629454 9.5703675e-22)
(1.5083896 -23.290526 0)
(1.0744881 -22.020479 8.2996196e-22)
(0.61367177 -20.812359 7.6747527e-22)
(0.12522403 -19.658995 0)
(-0.3841268 -18.54951 0)
(-0.90849249 -17.474904 0)
(-1.4607505 -16.430702 0)
(-2.0579055 -15.407502 0)
(-2.7083521 -14.386148 0)
(-3.4259836 -13.350499 3.673415e-22)
(-4.2397914 -12.274596 0)
(-5.1937858 -11.111961 0)
(-6.4029684 -9.7903975 0)
(-8.0743845 -8.3084273 0)
(-9.9053698 -7.0197698 0)
(-10.944519 -6.338332 0)
(-11.425499 -6.1216755 0)
(-11.990933 -6.1159768 0)
(-12.592806 -6.1935518 0)
(-13.169679 -6.3207062 0)
(-13.690749 -6.4914673 0)
(-14.134168 -6.6775904 0)
(-14.512934 -6.8530247 0)
(-14.819385 -6.9997715 0)
(-15.043797 -7.1006933 0)
(-15.175657 -7.1349882 0)
(-15.201126 -7.0740725 0)
(-15.098306 -6.8917451 0)
(-14.860972 -6.5760546 0)
(-14.484329 -6.1490794 0)
(-13.95546 -5.7193022 0)
(-13.206107 -5.473027 0)
(-11.861289 -5.5449335 0)
(30.041049 -1.4417731 0)
(30.263689 -4.1775908 0)
(30.978065 -7.5476621 -4.575076e-21)
(32.340188 -11.303878 0)
(34.511111 -15.514979 0)
(37.725779 -20.29581 -2.898412e-21)
(42.012777 -25.392624 2.529453e-21)
(47.412357 -30.66723 4.3975047e-21)
(54.540849 -36.723826 0)
(64.14511 -44.065972 0)
(76.061326 -51.925477 0)
(89.129243 -58.627674 -6.1707475e-23)
(101.94462 -62.763249 0)
(113.43641 -63.763931 -2.9202612e-21)
(122.99175 -61.780406 5.5436833e-21)
(130.3604 -57.34188 5.432196e-21)
(135.53437 -51.092526 7.8632503e-22)
(138.65363 -43.638468 0)
(139.91548 -35.475254 0)
(139.55515 -27.00424 6.0908227e-21)
(137.95336 -18.54483 2.3089146e-21)
(135.60601 -10.280261 3.126669e-20)
(132.68108 -2.3131886 2.1741759e-20)
(129.13964 5.4338862 9.8794666e-21)
(124.91676 12.954651 -4.8902359e-21)
(119.90967 20.102576 -1.4852614e-20)
(114.09525 26.793196 1.3622835e-20)
(107.69533 33.017632 4.6414136e-21)
(101.06343 38.67199 0)
(94.111033 43.6622 0)
(86.821636 48.27611 4.9228479e-21)
(79.686878 52.314398 6.777358e-24)
(73.398266 54.291243 1.0250592e-20)
(67.967679 53.290137 1.1790887e-20)
(64.752499 50.629408 1.0020106e-20)
(62.164431 48.719261 3.7632533e-21)
(57.403864 48.436913 0)
(51.483467 49.874273 0)
(36.381296 50.841361 0)
(14.317212 47.206305 0)
(-8.4472757 41.386868 7.8454184e-22)
(-30.735366 30.404344 -2.0042569e-20)
(-48.140836 14.159816 -3.2605354e-20)
(-58.065209 -5.5933383 6.8110694e-20)
(-54.290509 -10.554604 0)
(-36.253561 -32.544959 1.6612158e-19)
(-15.79144 -39.922352 0)
(-5.0649811 -45.168029 -6.0250709e-20)
(1.9522531 -48.737311 4.7743545e-20)
(6.6264114 -50.61765 -5.748255e-20)
(9.565208 -51.159452 0)
(11.310332 -50.739453 -1.3912834e-20)
(12.268205 -49.648805 -1.2237875e-20)
(12.699624 -48.112302 -1.0885364e-20)
(12.767822 -46.295293 9.6018768e-21)
(12.579433 -44.314967 8.6479797e-21)
(12.212064 -42.250109 0)
(11.72669 -40.161079 0)
(11.164512 -38.094922 0)
(10.551107 -36.08217 -5.9441391e-21)
(9.9038049 -34.141499 -6.1632204e-23)
(9.2348591 -32.284063 -2.5616574e-21)
(8.552916 -30.515343 -5.2843025e-23)
(7.8638676 -28.836965 2.1241808e-21)
(7.1716233 -27.247685 -2.0051224e-21)
(6.478509 -25.744197 -4.1940849e-23)
(5.7852799 -24.321637 4.2120662e-22)
(5.0915992 -22.974034 1.1950365e-21)
(4.3960175 -21.694932 0)
(3.6959222 -20.477748 0)
(2.98744 -19.31604 0)
(2.2655896 -18.202334 0)
(1.5255706 -17.127131 0)
(0.76259029 -16.07988 0)
(-0.032743488 -15.049285 0)
(-0.86543867 -14.013942 0)
(-1.7448541 -12.947828 0)
(-2.7125417 -11.818484 0)
(-3.8342942 -10.568455 0)
(-5.2592021 -9.0893085 0)
(-7.3356761 -7.3660602 0)
(-9.777208 -5.9459258 0)
(-11.05576 -5.4077337 0)
(-11.361839 -5.4024951 0)
(-11.824577 -5.5418185 0)
(-12.426091 -5.7123645 0)
(-12.992984 -5.8985934 0)
(-13.510007 -6.1183037 0)
(-13.942311 -6.3575109 0)
(-14.302789 -6.5890539 0)
(-14.58674 -6.7959364 0)
(-14.785894 -6.9640246 0)
(-14.894393 -7.077302 0)
(-14.900966 -7.1124047 0)
(-14.780712 -7.0392277 0)
(-14.516827 -6.825263 0)
(-14.095597 -6.4631466 0)
(-13.500059 -6.045798 0)
(-12.712705 -5.7798465 0)
(-11.347621 -5.8294004 0)
(30.044176 -1.6056021 0)
(30.260382 -4.656993 -5.1610642e-21)
(30.992057 -8.4945274 4.4481394e-21)
(32.430747 -12.847954 0)
(34.837299 -17.890441 -1.5593823e-21)
(38.472582 -23.700034 4.0077622e-21)
(43.413765 -29.930397 4.5471995e-21)
(50.125097 -36.745246 -3.9278413e-21)
(59.598679 -44.958197 0)
(72.198136 -54.47805 7.4997956e-22)
(86.925658 -63.664138 3.610744e-23)
(102.09434 -70.520564 1.8629418e-21)
(116.24158 -73.862121 -4.4726e-21)
(128.47148 -73.50581 4.3702047e-21)
(138.37667 -69.9094 7.0338556e-21)
(145.85011 -63.789648 -1.4662014e-20)
(150.93418 -55.890145 -8.0718988e-23)
(153.75067 -46.883324 -7.4206059e-21)
(154.43923 -37.311596 1.8175924e-20)
(153.1628 -27.619343 -2.2427106e-20)
(150.28289 -18.201368 -1.5288267e-20)
(146.29641 -9.3146734 -4.246788e-20)
(141.41368 -1.0231309 -1.5031468e-20)
(136.04511 7.1989998 -5.0523805e-21)
(130.50996 15.522363 0)
(124.75113 23.740075 1.843003e-20)
(118.46691 31.501188 -1.9121057e-20)
(111.49184 38.534367 -4.5661432e-21)
(103.99959 44.662246 2.3412238e-20)
(96.014302 49.829725 -1.896805e-20)
(87.437071 54.4783 -2.848875e-20)
(78.524138 58.818297 -4.8469116e-21)
(69.56438 61.371168 3.7391038e-23)
(60.430975 60.541979 4.3385955e-22)
(53.168836 57.779119 1.4217293e-20)
(46.469616 55.925114 0)
(37.875187 55.442101 4.3114388e-21)
(25.733537 55.35719 -3.9653666e-21)
(8.2284032 52.772848 1.4704185e-20)
(-11.355551 45.626411 0)
(-30.438701 35.299376 -1.7495154e-20)
(-44.785565 23.076137 -4.84622e-20)
(-56.962897 9.0211496 0)
(-68.939527 -9.5710109 1.6411502e-21)