/*--------------------------------*- C++ -*----------------------------------*\
| =========                 |                                                 |
| \\      /  F ield         | OpenFOAM: The Open Source CFD Toolbox           |
|  \\    /   O peration     | Version:  2406                                  |
|   \\  /    A nd           | Website:  www.openfoam.com                      |
|    \\/     M anipulation  |                                                 |
\*---------------------------------------------------------------------------*/
FoamFile
{
    version     2.0;
    format      ascii;
    arch        "LSB;label=32;scalar=64";
    class       volScalarField;
    location    "0";
    object      thickness;
}
// * * * * * * * * * * * * * * * * * * * * * * * * * * * * * * * * * * * * * //

dimensions      [0 0 0 0 0 0 0];

internalField   uniform 0;

boundaryField
{
    inlet
    {
        type            fixedValue;
        value           uniform 0;
    }
    outlet
    {
        type            fixedValue;
        value           uniform 0;
    }
    top
    {
        type            fixedValue;
        value           uniform 0;
    }
    bottom
    {
        type            fixedValue;
        value           uniform 0;
    }
    frontAndBack
    {
        type            empty;
    }
    airfoil
    {
        type            fixedValue;
        value           nonuniform List<scalar> 
1440
(
0
0
0
0
0
0
0
0
0
0
0
0
0
0
0
0
0
0
0
0
0
0
0
0
0
0
0
0
0
0
0
0
0
0
0
0
0
0
0
0
0
0
0
0
0
0
0
0
0
0
0
0
0
0
0
0
0
0
0
0
0
0
0
0
0
0
0
0
0
0
0
0
0
0
0
0
0
0
0
0
0
0
0
0
0
0
0
0
0
0
0
0
0
0
0
0
0
0
0
0
0
0
0
0
0
0
0
0
0
0
0
0
0
0
0
0
0
0
0
0
0
0
0
0
0
0
0
0
0
0
0
0
0
0
0
0
0
0
0
0
0
0
0
0
0
0
0
0
0
0
0
0
0
0
0
0
0
0
0
0
0
0
0
0
0
0
0
0
0
0
0
0
0
0
0
0
0
0
0
0
0
0
0
0
0
0
0
0
0
0
0
0
0
0
0
0
0
0
0
0
0
0
0
0
0
0
0
0
0
0
0
0
0
0
0
0
0
0
0
0
0
0
0
0
0
0
0
0
0
0
0
0
0
0
0
0
0
0
0
0
0
0
0
0
0
0
0
0
0
0
0
0
0
0
0
0
0
0
0
0
0
0
0
0
0
0
0
0
0
0
0
0
0
0
0
0
0
0
0
0
0
0
0
0
0
0
0
0
0
0
0
0
0
0
0
0
0
0
0
0
0
0
0
0
0
0
0
0
0
0
0
0
0
0
0
0
0
0
0
0
0
0
0
0
0
0
0
0
0
0
0
0
0
0
0
0
0
0
0
0
0
0
0
0
0
0
0
0
0
0
0
0
0
0
0
0
0
0
0
0
0
0
0
0
0
0
0
0
0
0
0
0
0
0
0
0
0
0
0
0
0
0
0
0
0
0
0
0
0
0
0
0
0
0
0
0
0
0
0
0
0
0
0
0
0
0
0
0
0
0
0
0
0
0
0
0
0
0
0
0
0
0
0
0
0
0
0
0
0
0
0
0
0
0
0
0
0
0
0
0
0
0
0
0
0
0
0
0
0
0
0
0
0
0
0
0
0
0
0
0
0
0
0
0
0
0
0
0
0
0
0
0
0
0
0
0
0
0
0
0
0
0
0
0
0
0
0
0
0
0
0
0
0
0
0
0
0
0
0
0
0
0
0
0
0
0
0
0
0
0
0
0
0
0
0
0
0
0
0
0
0
0
0
0
0
0
0
0
0
0
0
0
0
0
0
0
0
0
0
0
0
0
0
0
0
0
0
0
0
0
0
0
0
0
0
0
0
0
0
0
0
0
0
0
0
0
0
0
0
0
0
0
0
0
0
0
0
0
0
0
0
0
0
0
0
0
0
0
0
0
0
0
0
0
0
0
0
0
0
0
0
0
0
0
0
0
0
0
0
0
0
0
0
0
0
0
0
0
0
0
0
0
0
0
0
0
0
0
0
0
0
0
0
0
0
0
0
0
0
0
0
0
0
0
0
0
0
0
0
0
0
0
0
0
0
0
0
0
0
0
0
0
0
0
0
0
0
0
0
0
0
0
0
0
0
0
0
0
0
0
0
0
0
0
0
0
0
0
0
0
0
0
0
0
0
0
0
0
0
0
0
0
0
0
0
0
0
0
0
0
0
0
0
0
0
0
0
0
0
0
0
0
0
0
0
0
0
0
0
0
0
0
0
0
0
0
0
0
0
0
0
0
0
0
0
0
0
0
0
0
0
0
0
0
0
0
0
0
0
0
0
0
0
0
0
0
0
0
0
0
0
0
0
0
0
0
0
0
0
0
0
0
0
0
0
0
0
0
0
0
0
0
0
0
0
0
0
0
0
0
0
0
0
0
0
0
0
0
0
0
0
0
0
0
0
0
0
0
0
0
0
0
0
0
0
0
0
0
0
0
0
0
0
0
0
0
0
0
0
0
0
0
0
0
0
0
0
0
0
0
0
0
0
0
0
0
0
0
0
0
0
0
0
0
0
0
0
0
0
0
0
0
0
0
0
0
0
0
0
0
0
0
0
0
0
0
0
0
0
0
0
0
0
0.0013620846
0.002656667
0.0013799356
0.0025984298
0.0026571695
0.0025989209
0.0069312988
0.0088926739
0.0086096551
0.0069311719
0.008892678
0.0052988581
0.0014444913
0.0064925026
0.0084928279
0.0051994413
0.001424113
0.0013662857
0.0083360807
0.0046300267
0.0013624365
0.0082689357
0.0045835281
0.00075419559
0.0086096595
0.0004840943
0.0013820217
0.0082046956
0.00047045731
0.0013453752
0.0052991305
0.0014449716
0.0064925649
0.0084928325
0.0051996917
0.0014246277
0.0013663614
0.0083360401
0.0046301285
0.0013625374
0.0082691412
0.0045837017
0.00075421328
0.00048680454
0.0013802332
0.0082049231
0.00047312831
0.0013436593
0.0031594285
0.0042741541
0.001226184
0.0021618428
0.0012213275
0.002284347
0.0010353757
0.0021538964
0.0031594836
0.0042742079
0.0029751282
0.0040898153
0.0012261607
0.0021618059
0.0012212428
0.0022838968
0.0010351965
0.0021537459
0.00068634208
0.0043108427
0.002802081
0.0027549811
0.0028407558
0.0013177958
0.00093564517
0.0018712903
0.00093250312
0.0021075434
0.0018650062
0.00085884298
0.00091628811
0.0042408176
0.0030152745
0.0021246905
0.0027901048
0.001246244
0.0029751101
0.0040897795
0.0027565252
0.0028402349
0.0013179478
0.00093565883
0.0018713177
0.00093256893
0.0021079741
0.0018651379
0.00085900285
0.0043036908
0.0030262436
0.0021257647
0.002789598
0.0012463816
0.005855033
0.0039232046
0.004618266
0.0044082967
0.0061593369
0.00093016416
0.0019521338
0.001416356
0.0012254251
0.0021610642
0.00099496191
0.0021601958
0.0012125068
0.0021519843
0.00098982914
0.002137447
0.0060339836
0.0046180897
0.0061592938
0.00093018336
0.0019520855
0.002183485
0.0014162539
0.0049930125
0.0037138717
0.00414812
0.0057319132
0.00093022053
0.0013849534
0.0018022945
0.0019245551
0.0012254096
0.002161084
0.00099498811
0.0021601699
0.0012124782
0.002152001
0.00098985288
0.0021373976
0.00060537609
0.0047761279
0.00017398736
0.0013673694
0.0037878226
0.0022872239
0.00048513028
0.00029876179
0.0006495897
0.00093476036
0.0019842731
0.0018695207
0.00081817715
0.0009249194
0.0019763775
0.0018498388
0.00081422938
0.00023071998
0.00088859477
0.0046624692
0.00016040373
0.0014793976
0.0032586267
0.0022398993
0.00044848369
0.0002854472
0.00065453946
0.0041480712
0.0057484691
0.0057318572
0.00093022031
0.0018024112
0.0019244955
0.0016323887
0.0013848952
0.00087330128
0.0050220297
0.00017526819
0.0014746297
0.0038039675
0.0022860514
0.00048446304
0.00029877371
0.00065674605
0.00093477077
0.0019842126
0.0018695415
0.00081811039
0.00092494017
0.0019763185
0.0018498803
0.00081416332
0.00087439816
0.0047315037
0.00016162869
0.0014753891
0.0032668941
0.0022387719
0.00044788911
0.00028545623
0.00065682734
0.0062621985
0.0021595812
0.0059241154
0.0018576497
0.0020704494
0.0023494532
0.001083481
0.0021768735
0.00091090125
0.0019768484
0.0076192735
0.0056072099
0.00051338209
0.0018728354
0.001685453
0.007550567
0.0055068667
0.00051342516
0.0018396371
0.0060689472
0.0021916717
0.0059242493
0.0024034402
0.0018577082
0.0054923685
0.0024291325
0.0018307914
0.0022911886
0.0012820913
0.00037602754
0.0020181946
0.0010090973
0.00037623202
0.0019768251
0.0056073755
0.0079252373
0.00051336937
0.001873102
0.001685462
0.0075521446
0.005507076
0.00051343031
0.0018397013
0.0054926039
0.0018308702
0.001010395
0.0025498239
0.0064643505
0.001011091
0.0011417501
0.002286351
0.0028034452
0.0063953611
0.0010103756
0.0011748055
0.0025497952
0.0067703819
0.0010110995
0.002286359
0.0028035583
0.006396975
0.0013827211
0.0059169988
0.0013631182
0.0053943125
0.00080769173
0.00069780821
0.0039233702
0.0044083068
0.0031146392
0.00088716357
0.0042308204
0.0028405161
0.00086179513
0.0023141311
0.00084878988
0.0024246629
0.0011747985
0.0028841075
0.0021271919
0.0021787321
0.0073177296
0.0069815128
0.0020151555
0.0070057119
0.0065868459
0.0031141193
0.00084081074
0.0037137399
0.0042308187
0.0028400634
0.00073512503
0.00080492185
0.00045725208
0.0016098187
0.00045917694
0.00091439588
0.00069544271
0.00034778835
0.0013908457
0.0003497652
0.00069542285
0.00084881169
0.0022820224
0.0024246551
0.0028840887
0.0021592552
0.0021787296
0.0011418088
0.0074464393
0.0070346044
0.002047223
0.0071028914
0.0066281763
0.0063296778
0.0073744511
0.0079894293
0.0058265449
0.0057119151
0.0070123652
0.0036524455
0.004880292
0.0073003024
0.006508705
0.00548815
0.0071450881
0.0055466662
0.0072179697
0.0039315315
0.0051594602
0.0074822734
0.00090766451
0.0044543747
0.0031758306
0.0017409744
0.0048796717
0.0057589164
0.0055277286
0.0072309387
0.0080783953
0.0034089845
0.0051343549
0.00088917343
0.0016649827
0.004249381
0.0052533065
0.0017398564
0.0048822899
0.0061432818
0.007715617
0.0057803174
0.005631996
0.0074679187
0.0078695728
0.0052525397
0.0016639131
0.0042515295
0.0035276125
0.0028905831
0.0020701152
0.0032720349
0.0023569885
0.0021835729
0.00097914752
0.00082424848
0.0023697327
0.0062590439
0.0069412148
0.0061632112
0.006908256
0.0029991959
0.0030816056
0.0063038117
0.0069341542
0.0061549353
0.0070429895
0.0022863276
0.0016018861
0.0029772046
0.0030774677
0.0028907346
0.0076348557
0.00824988
0.0032720523
0.0023569358
0.00097915564
0.00082430022
0.00037606821
0.0026814249
0.0017964763
0.0030944233
0.0077839663
0.0016322816
0.00082448908
0.00037621826
0.00097901315
0.0060657554
0.0072030227
0.0065531681
0.0072586649
0.0030328777
0.0030149782
0.0060241581
0.007195891
0.006544744
0.00722517
0.0023211882
0.00071168901
0.0015569598
0.0030120791
0.0030107661
0.00021663226
0.00659183
0.0053542748
0.0015394012
0.0011608495
0.0057423201
0.0051150874
0.00056582193
0.00026706014
0.0014269976
0.0064601043
0.0073296654
0.0076831795
0.0066130897
0.003002712
0.002948257
0.0061452275
0.0073238262
0.0079909866
0.006604199
0.0017061286
0.0015188855
0.0023673318
0.0029422859
0.00021828495
0.0063661432
0.005099136
0.00159628
0.0011014989
0.0052081745
0.0047418855
0.00054048128
0.0007118283
0.00025503408
0.0014484625
0.0073239089
0.0026813676
0.0017962637
0.0030944274
0.007962798
0.0009790181
0.00082449767
0.0068035145
0.0054848329
0.0015898393
0.0011595156
0.0057572882
0.005167225
0.00056529802
0.00075652842
0.00026652431
0.0014467086
0.0023617862
0.0068444315
0.0077192184
0.0075574683
0.0068085126
0.0029353712
0.0029489034
0.0063978714
0.0077133731
0.0077821674
0.0067995431
0.0016708297
0.00071161454
0.0015185803
0.0023320864
0.0029428565
0.0065122291
0.0051415998
0.0015901541
0.0011002472
0.0052201334
0.0047609596
0.00053999155
0.00025453532
0.0014468714
0.00096390223
0.0078265872
0.0027015334
0.004001317
0.0013908019
0.00063921317
0.0039157449
0.0025788122
0.0013052298
0.00061590879
0.0055418824
0.0026354941
0.0010624448
0.0023135546
0.0054217845
0.0023440557
0.00087550564
0.0022621632
0.00099600368
0.0081769997
0.0078412765
0.00081948743
0.0027016561
0.0040020264
0.0013910525
0.00063923186
0.0039164351
0.0025789051
0.0013054612
0.00061591976
0.0052938507
0.0010303273
0.0026354874
0.0017605524
0.0054229177
0.0023440634
0.00090756014
0.0022627121
0.00085154407
0.0025490924
0.00049753797
0.0050981847
0.0018323097
0.0028146889
0.0024801029
0.00049771076
0.0049602058
0.0015870319
0.0025505199
0.0019957785
0.00049752939
0.0048498663
0.0018322966
0.0028146792
0.0024806809
0.00049771631
0.0049613618
0.001587034
0.0025505191
)
;
    }
}


// ************************************************************************* //
