/*--------------------------------*- C++ -*----------------------------------*\
| =========                 |                                                 |
| \\      /  F ield         | OpenFOAM: The Open Source CFD Toolbox           |
|  \\    /   O peration     | Version:  2406                                  |
|   \\  /    A nd           | Website:  www.openfoam.com                      |
|    \\/     M anipulation  |                                                 |
\*---------------------------------------------------------------------------*/
FoamFile
{
    version     2.0;
    format      ascii;
    arch        "LSB;label=32;scalar=64";
    class       volScalarField;
    location    "0";
    object      thicknessFraction;
}
// * * * * * * * * * * * * * * * * * * * * * * * * * * * * * * * * * * * * * //

dimensions      [0 0 0 0 0 0 0];

internalField   uniform 0;

boundaryField
{
    inlet
    {
        type            fixedValue;
        value           uniform 0;
    }
    outlet
    {
        type            fixedValue;
        value           uniform 0;
    }
    top
    {
        type            fixedValue;
        value           uniform 0;
    }
    bottom
    {
        type            fixedValue;
        value           uniform 0;
    }
    frontAndBack
    {
        type            empty;
    }
    airfoil
    {
        type            fixedValue;
        value           nonuniform List<scalar> 
1440
(
0
0
0
0
0
0
0
0
0
0
0
0
0
0
0
0
0
0
0
0
0
0
0
0
0
0
0
0
0
0
0
0
0
0
0
0
0
0
0
0
0
0
0
0
0
0
0
0
0
0
0
0
0
0
0
0
0
0
0
0
0
0
0
0
0
0
0
0
0
0
0
0
0
0
0
0
0
0
0
0
0
0
0
0
0
0
0
0
0
0
0
0
0
0
0
0
0
0
0
0
0
0
0
0
0
0
0
0
0
0
0
0
0
0
0
0
0
0
0
0
0
0
0
0
0
0
0
0
0
0
0
0
0
0
0
0
0
0
0
0
0
0
0
0
0
0
0
0
0
0
0
0
0
0
0
0
0
0
0
0
0
0
0
0
0
0
0
0
0
0
0
0
0
0
0
0
0
0
0
0
0
0
0
0
0
0
0
0
0
0
0
0
0
0
0
0
0
0
0
0
0
0
0
0
0
0
0
0
0
0
0
0
0
0
0
0
0
0
0
0
0
0
0
0
0
0
0
0
0
0
0
0
0
0
0
0
0
0
0
0
0
0
0
0
0
0
0
0
0
0
0
0
0
0
0
0
0
0
0
0
0
0
0
0
0
0
0
0
0
0
0
0
0
0
0
0
0
0
0
0
0
0
0
0
0
0
0
0
0
0
0
0
0
0
0
0
0
0
0
0
0
0
0
0
0
0
0
0
0
0
0
0
0
0
0
0
0
0
0
0
0
0
0
0
0
0
0
0
0
0
0
0
0
0
0
0
0
0
0
0
0
0
0
0
0
0
0
0
0
0
0
0
0
0
0
0
0
0
0
0
0
0
0
0
0
0
0
0
0
0
0
0
0
0
0
0
0
0
0
0
0
0
0
0
0
0
0
0
0
0
0
0
0
0
0
0
0
0
0
0
0
0
0
0
0
0
0
0
0
0
0
0
0
0
0
0
0
0
0
0
0
0
0
0
0
0
0
0
0
0
0
0
0
0
0
0
0
0
0
0
0
0
0
0
0
0
0
0
0
0
0
0
0
0
0
0
0
0
0
0
0
0
0
0
0
0
0
0
0
0
0
0
0
0
0
0
0
0
0
0
0
0
0
0
0
0
0
0
0
0
0
0
0
0
0
0
0
0
0
0
0
0
0
0
0
0
0
0
0
0
0
0
0
0
0
0
0
0
0
0
0
0
0
0
0
0
0
0
0
0
0
0
0
0
0
0
0
0
0
0
0
0
0
0
0
0
0
0
0
0
0
0
0
0
0
0
0
0
0
0
0
0
0
0
0
0
0
0
0
0
0
0
0
0
0
0
0
0
0
0
0
0
0
0
0
0
0
0
0
0
0
0
0
0
0
0
0
0
0
0
0
0
0
0
0
0
0
0
0
0
0
0
0
0
0
0
0
0
0
0
0
0
0
0
0
0
0
0
0
0
0
0
0
0
0
0
0
0
0
0
0
0
0
0
0
0
0
0
0
0
0
0
0
0
0
0
0
0
0
0
0
0
0
0
0
0
0
0
0
0
0
0
0
0
0
0
0
0
0
0
0
0
0
0
0
0
0
0
0
0
0
0
0
0
0
0
0
0
0
0
0
0
0
0
0
0
0
0
0
0
0
0
0
0
0
0
0
0
0
0
0
0
0
0
0
0
0
0
0
0
0
0
0
0
0
0
0
0
0
0
0
0
0
0
0
0
0
0
0
0
0
0
0
0
0
0
0
0
0
0
0
0
0
0
0
0
0
0
0
0
0
0
0
0
0
0
0
0
0
0
0
0
0
0
0
0
0
0
0
0
0
0
0
0
0
0
0
0
0
0
0
0
0
0
0
0
0
0
0
0
0
0
0
0
0
0
0
0
0
0
0
0
0
0
0
0
0
0
0
0
0
0
0
0
0
0
0
0
0
0
0
0
0
0
0
0
0
0
0
0
0
0
0
0
0
0
0
0
0
0
0
0
0
0
0
0
0
0
0
0
0
0
0
0
0
0
0
0
0
0
0
0
0
0
0
0
0
0
0
0
0
0
0
0.12145426
0.23688947
0.12304599
0.23169658
0.23693428
0.23174037
0.6180495
0.79294124
0.76770505
0.61803818
0.79294161
0.47248816
0.092001636
0.57892296
0.7572878
0.46362337
0.09070371
0.08702061
0.74331098
0.41284986
0.086775447
0.7373238
0.40870367
0.048035752
0.76770544
0.043165682
0.12323201
0.73159564
0.041949701
0.11996431
0.47251245
0.092032222
0.57892851
0.75728822
0.46364569
0.090736492
0.087025432
0.74330737
0.41285893
0.086781874
0.73734213
0.40871915
0.048036879
0.043407349
0.12307252
0.73161594
0.042187868
0.1198113
0.28171967
0.38111744
0.10933627
0.19276703
0.10890323
0.20369047
0.092322299
0.19205846
0.28172458
0.38112223
0.265286
0.36468033
0.1093342
0.19276374
0.10889568
0.20365033
0.092306316
0.19204504
0.061199697
0.38438888
0.24985573
0.24565594
0.25330429
0.11750511
0.083429535
0.16685907
0.083149364
0.18792526
0.16629873
0.076581243
0.081703506
0.37814489
0.26886576
0.18945424
0.24878785
0.11112498
0.26528438
0.36467714
0.24579362
0.25325784
0.11751866
0.083430752
0.1668615
0.083155232
0.18796367
0.16631046
0.076595498
0.38375116
0.26984385
0.18955002
0.24874266
0.11113726
0.52208112
0.349824
0.41180118
0.39307865
0.54921526
0.082940804
0.17406771
0.12629352
0.10926861
0.1926976
0.088718685
0.19262017
0.10811671
0.19188797
0.088261007
0.1905917
0.53803778
0.41178546
0.54921142
0.082942516
0.17406341
0.19469682
0.12628441
0.44521655
0.33115822
0.36987924
0.51110278
0.08294583
0.12349341
0.16070685
0.17160857
0.10926722
0.19269937
0.088721021
0.19261786
0.10811416
0.19188946
0.088263124
0.1905873
0.10796025
0.42587739
0.015514091
0.16256732
0.33775227
0.203947
0.043258058
0.026639968
0.057922563
0.083350638
0.1769335
0.16670128
0.072955155
0.08247314
0.17622948
0.16494628
0.072603141
0.027430428
0.1584683
0.41574268
0.014302867
0.17588641
0.29056497
0.19972716
0.039990358
0.025452733
0.058363923
0.36987489
0.51257904
0.51109779
0.082945811
0.16071726
0.17160327
0.1455567
0.12348823
0.07787046
0.44780395
0.0156283
0.13148967
0.33919187
0.20384245
0.043198562
0.026641031
0.05856068
0.083351566
0.17692812
0.16670313
0.072949203
0.082474992
0.17622421
0.16494998
0.07259725
0.077968266
0.42189834
0.014412094
0.13155738
0.29130215
0.19962664
0.03993734
0.025453538
0.058567929
0.55838722
0.19256536
0.52824105
0.16564276
0.18461767
0.20949586
0.096611749
0.19410728
0.08122317
0.17627146
0.67939478
0.49998325
0.045777214
0.16699684
0.15028834
0.67326836
0.49103585
0.045781054
0.16403662
0.5411554
0.19542681
0.52825299
0.21430976
0.16564798
0.48974308
0.2166007
0.16324786
0.20430053
0.11432142
0.033529594
0.17995822
0.089979108
0.033547827
0.17626938
0.49999802
0.70667693
0.045776079
0.16702061
0.15028914
0.67340903
0.49105452
0.045781513
0.16404234
0.48976407
0.16325489
0.090094821
0.2273625
0.5764127
0.090156885
0.10180748
0.20386916
0.24997738
0.57026105
0.090093092
0.10475496
0.22735994
0.60370088
0.090157641
0.20386988
0.24998747
0.57040496
0.12329436
0.52760648
0.12154642
0.48099963
0.036010096
0.031111054
0.34983877
0.39307955
0.2777259
0.056504665
0.37725346
0.25328291
0.054888914
0.20634626
0.054060592
0.21620215
0.10475434
0.25716987
0.18967728
0.19427301
0.65250673
0.62252698
0.17968722
0.62468477
0.58733536
0.27767955
0.05355239
0.33114647
0.37725331
0.25324255
0.046821122
0.035886604
0.020386108
0.071772095
0.020471927
0.04076739
0.03100559
0.015505782
0.062009409
0.015593918
0.031004705
0.054061981
0.20348319
0.21620145
0.25716819
0.19253629
0.19427279
0.10181272
0.66398351
0.62726105
0.18254662
0.63335005
0.5910207
0.56440421
0.65756447
0.7124008
0.51954089
0.50931959
0.62527803
0.32568097
0.43516549
0.65095279
0.58036769
0.48936693
0.63711265
0.49458469
0.64361135
0.35056649
0.46005834
0.66717876
0.080934557
0.39718733
0.28318221
0.15523907
0.43511018
0.5135106
0.49289607
0.64476777
0.72033371
0.30397206
0.45781975
0.079285746
0.14846305
0.37890847
0.46842642
0.15513938
0.43534364
0.54778366
0.68798553
0.51541889
0.50219337
0.66589878
0.70171345
0.46835804
0.14836767
0.37910005
0.31454987
0.25774729
0.18458787
0.29176055
0.21016776
0.19470466
0.087308548
0.073496523
0.21130414
0.55810593
0.61893369
0.54956073
0.61599483
0.26743206
0.27478036
0.56209778
0.61830412
0.54882279
0.62800873
0.20386708
0.14283685
0.26547114
0.27441139
0.25776079
0.68078421
0.73562465
0.2917621
0.21016306
0.087309273
0.073501137
0.03353322
0.23909708
0.16018806
0.27592329
0.69408009
0.14554715
0.073517977
0.0335466
0.087296567
0.5408708
0.64227856
0.58433238
0.64724006
0.2704354
0.26883934
0.53716166
0.64164264
0.58358121
0.64425339
0.20697552
0.063459829
0.13883087
0.26858083
0.26846375
0.019316649
0.58777978
0.47742956
0.13726521
0.10351054
0.51203075
0.45610171
0.050453165
0.023813197
0.12724241
0.57603407
0.65357103
0.68509314
0.58967546
0.26774558
0.26288995
0.54795716
0.65305036
0.71253966
0.58888269
0.15213194
0.13543587
0.21109006
0.26235751
0.019464015
0.56765575
0.45467935
0.14233697
0.098218364
0.46440209
0.42282407
0.048193592
0.06347225
0.022740859
0.12915639
0.65305773
0.23909198
0.1601691
0.27592366
0.71002614
0.087297009
0.073518743
0.60665525
0.48907114
0.14176266
0.1033916
0.51336542
0.46075071
0.050406449
0.067458067
0.023765419
0.129
0.21059557
0.61030373
0.68830665
0.67388374
0.60710091
0.26174095
0.26294759
0.57048489
0.68778544
0.69391969
0.60630112
0.14898441
0.063453189
0.13540865
0.2079473
0.2624084
0.58068193
0.45846577
0.14179074
0.098106753
0.46546845
0.42452487
0.048149924
0.022696385
0.12901452
0.085949157
0.69788051
0.24089012
0.35678912
0.12401491
0.05699731
0.34915883
0.22994732
0.11638463
0.054919306
0.49415813
0.23500153
0.094735997
0.20629486
0.48344925
0.20901457
0.078067018
0.20171239
0.088811577
0.72912606
0.69919033
0.073071991
0.24090105
0.35685237
0.12403726
0.056998976
0.34922037
0.22995561
0.11640526
0.054920284
0.47204166
0.091872147
0.23500093
0.1569848
0.4835503
0.20901526
0.08092525
0.20176133
0.075930414
0.22729727
0.044364426
0.45459453
0.16338325
0.25097996
0.22114562
0.044379833
0.44229124
0.14151234
0.22742456
0.17795941
0.044363661
0.4324525
0.16338207
0.25097909
0.22119716
0.044380329
0.44239432
0.14151252
0.22742448
)
;
    }
}


// ************************************************************************* //
