/*--------------------------------*- C++ -*----------------------------------*\
| =========                 |                                                 |
| \\      /  F ield         | OpenFOAM: The Open Source CFD Toolbox           |
|  \\    /   O peration     | Version:  2406                                  |
|   \\  /    A nd           | Website:  www.openfoam.com                      |
|    \\/     M anipulation  |                                                 |
\*---------------------------------------------------------------------------*/
FoamFile
{
    version     2.0;
    format      ascii;
    arch        "LSB;label=32;scalar=64";
    class       volScalarField;
    location    "1000";
    object      k;
}
// * * * * * * * * * * * * * * * * * * * * * * * * * * * * * * * * * * * * * //

dimensions      [0 2 -2 0 0 0 0];

internalField   nonuniform List<scalar> 
16045
(
0.054775659
0.047087648
0.041212732
0.036588003
0.032859035
0.029792661
0.02722925
0.025056287
0.02319214
0.021576244
0.020162873
0.018916587
0.017810013
0.016820956
0.01593224
0.015129103
0.014400449
0.013735878
0.013128156
0.01256951
0.012055317
0.011579388
0.011138978
0.010728823
0.010347619
0.0099905873
0.0096575998
0.009344061
0.0090508517
0.0087733478
0.0085133336
0.0082660007
0.0080339723
0.0078121383
0.0076039209
0.0074038187
0.007216028
0.0070345887
0.0068644513
0.006699152
0.0065443735
0.0063931213
0.0062517895
0.0061128313
0.0059833437
0.0058551958
0.0057362048
0.0056175996
0.0055079656
0.0053978143
0.0052965641
0.0051939321
0.0051002226
0.0050043113
0.004917401
0.004827529
0.0047467617
0.0046623419
0.0045871421
0.0045076555
0.0044375284
0.0043625025
0.0042970305
0.0042260294
0.0041648583
0.0040974858
0.0040403031
0.0039762124
0.0039227263
0.0038616271
0.0038115546
0.0037532076
0.0037062804
0.0036504745
0.0036064613
0.0035529827
0.003511707
0.0034603324
0.0034216515
0.003372183
0.0033359435
0.003288232
0.0032542794
0.0032081727
0.0031764118
0.0031317213
0.0031020883
0.0030586588
0.0030310576
0.0029887687
0.0029631231
0.0029218496
0.0028980344
0.0028578543
0.0028354398
0.0027966404
0.002775789
0.0027378123
0.0027163594
0.0026740407
0.054775659
0.047087642
0.041212719
0.036587982
0.032859008
0.029792627
0.027229211
0.025056243
0.023192093
0.021576194
0.02016282
0.018916532
0.017809957
0.016820898
0.015932181
0.015129043
0.014400388
0.013735816
0.013128094
0.012569448
0.012055256
0.011579327
0.011138919
0.010728764
0.010347562
0.0099905313
0.0096575456
0.0093440088
0.0090508018
0.0087733001
0.0085132884
0.0082659582
0.0080339325
0.0078121013
0.0076038868
0.0074037875
0.0072159997
0.0070345633
0.0068644287
0.0066991321
0.0065443564
0.0063931068
0.0062517774
0.0061128215
0.0059833361
0.0058551903
0.0057362012
0.0056175977
0.0055079653
0.0053978154
0.0052965666
0.0051939358
0.0051002273
0.005004317
0.0049174074
0.0048275362
0.0047467695
0.0046623503
0.0045871509
0.0045076647
0.004437538
0.0043625124
0.0042970406
0.0042260397
0.0041648688
0.0040974963
0.0040403138
0.0039762231
0.0039227371
0.0038616379
0.0038115655
0.0037532184
0.0037062912
0.0036504853
0.0036064721
0.0035529934
0.0035117177
0.003460343
0.0034216621
0.0033721936
0.003335954
0.0032882424
0.0032542898
0.003208183
0.0031764221
0.0031317314
0.0031020985
0.0030586688
0.0030310676
0.0029887786
0.0029631329
0.0029218593
0.0028980441
0.0028578639
0.0028354494
0.0027966499
0.0027757984
0.0027378216
0.0027163688
0.0026740499
0.054775659
0.04708764
0.041212715
0.036587977
0.032859
0.029792619
0.027229201
0.025056232
0.023192081
0.021576182
0.020162807
0.018916519
0.017809943
0.016820884
0.015932167
0.015129029
0.014400374
0.013735803
0.013128082
0.012569436
0.012055245
0.011579317
0.01113891
0.010728756
0.010347556
0.009990527
0.0096575431
0.0093440083
0.0090508034
0.0087733039
0.0085132946
0.0082659666
0.0080339433
0.0078121145
0.0076039024
0.0074038053
0.0072160197
0.0070345854
0.0068644527
0.0066991579
0.0065443838
0.0063931356
0.0062518075
0.0061128527
0.0059833682
0.005855223
0.0057362345
0.0056176313
0.0055079991
0.0053978494
0.0052966006
0.0051939697
0.005100261
0.0050043504
0.0049174405
0.0048275689
0.0047468018
0.0046623821
0.0045871822
0.0045076956
0.0044375683
0.0043625422
0.00429707
0.0042260686
0.0041648972
0.0040975243
0.0040403413
0.0039762501
0.0039227637
0.003861664
0.0038115912
0.0037532437
0.0037063162
0.0036505098
0.0036064963
0.0035530172
0.0035117412
0.0034603661
0.003421685
0.003372216
0.0033359763
0.0032882643
0.0032543114
0.0032082043
0.0031764432
0.0031317522
0.003102119
0.0030586891
0.0030310877
0.0029887984
0.0029631526
0.0029218787
0.0028980633
0.0028578829
0.0028354683
0.0027966684
0.0027758169
0.0027378398
0.0027163868
0.0026740677
0.054775658
0.047087639
0.041212712
0.036587972
0.032858993
0.029792608
0.027229187
0.025056216
0.023192063
0.021576161
0.020162784
0.018916493
0.017809916
0.016820855
0.015932137
0.015128998
0.014400342
0.01373577
0.013128049
0.012569404
0.012055213
0.011579286
0.011138879
0.010728727
0.010347528
0.0099905015
0.00965752
0.0093439876
0.0090507854
0.0087732889
0.0085132826
0.0082659579
0.008033938
0.0078121125
0.0076039038
0.0074038101
0.0072160278
0.0070345966
0.006864467
0.0066991751
0.0065444036
0.0063931579
0.006251832
0.0061128792
0.0059833966
0.005855253
0.0057362658
0.0056176639
0.0055080327
0.0053978838
0.0052966355
0.0051940052
0.0051002969
0.0050043865
0.0049174768
0.0048276052
0.0047468382
0.0046624184
0.0045872185
0.0045077316
0.0044376042
0.0043625778
0.0042971054
0.0042261036
0.0041649319
0.0040975587
0.0040403754
0.0039762839
0.0039227972
0.0038616971
0.003811624
0.0037532761
0.0037063483
0.0036505415
0.0036065278
0.0035530483
0.003511772
0.0034603966
0.0034217151
0.0033722459
0.0033360058
0.0032882935
0.0032543404
0.003208233
0.0031764716
0.0031317803
0.0031021469
0.0030587167
0.0030311151
0.0029888255
0.0029631794
0.0029219052
0.0028980897
0.0028579089
0.0028354941
0.002796694
0.0027758423
0.002737865
0.0027164118
0.0026740923
0.054775658
0.047087639
0.04121271
0.036587968
0.032858987
0.029792599
0.027229177
0.025056204
0.023192049
0.021576146
0.020162768
0.018916475
0.017809897
0.016820835
0.015932117
0.015128977
0.014400322
0.01373575
0.013128029
0.012569385
0.012055195
0.01157927
0.011138865
0.010728715
0.010347519
0.0099904948
0.0096575163
0.0093439873
0.0090507888
0.008773296
0.0085132937
0.0082659731
0.0080339573
0.0078121359
0.0076039313
0.0074038415
0.007216063
0.0070346355
0.0068645093
0.0066992205
0.0065444519
0.0063932086
0.0062518849
0.006112934
0.0059834529
0.0058553106
0.0057363244
0.0056177232
0.0055080925
0.0053979438
0.0052966956
0.0051940651
0.0051003566
0.0050044458
0.0049175356
0.0048276634
0.0047468957
0.0046624752
0.0045872745
0.0045077868
0.0044376586
0.0043626314
0.0042971582
0.0042261555
0.0041649831
0.004097609
0.0040404249
0.0039763326
0.0039228452
0.0038617443
0.0038116705
0.0037533219
0.0037063934
0.0036505859
0.0036065716
0.0035530914
0.0035118146
0.0034604385
0.0034217566
0.0033722867
0.0033360462
0.0032883333
0.0032543797
0.0032082717
0.0031765099
0.0031318181
0.0031021843
0.0030587536
0.0030311516
0.0029888615
0.0029632152
0.0029219405
0.0028981246
0.0028579434
0.0028355283
0.0027967278
0.0027758758
0.002737898
0.0027164445
0.0026741246
0.054775659
0.047087638
0.04121271
0.036587965
0.032858981
0.029792592
0.027229168
0.025056193
0.023192036
0.02157613
0.02016275
0.018916456
0.017809875
0.016820813
0.015932093
0.015128952
0.014400296
0.013735724
0.013128004
0.01256936
0.012055171
0.011579247
0.011138844
0.010728696
0.010347503
0.0099904817
0.0096575067
0.0093439813
0.0090507869
0.0087732983
0.0085133007
0.0082659845
0.0080339736
0.0078121569
0.0076039571
0.0074038718
0.007216098
0.0070346745
0.0068645524
0.0066992672
0.006544502
0.0063932616
0.0062519406
0.006112992
0.0059835128
0.005855372
0.0057363871
0.0056177867
0.0055081566
0.0053980083
0.0052967603
0.0051941298
0.0051004211
0.00500451
0.0049175994
0.0048277267
0.0047469584
0.0046625372
0.0045873359
0.0045078474
0.0044377185
0.0043626905
0.0042972165
0.004226213
0.0041650399
0.0040976649
0.0040404802
0.0039763871
0.003922899
0.0038617973
0.0038117229
0.0037533736
0.0037064445
0.0036506363
0.0036066214
0.0035531406
0.0035118632
0.0034604864
0.003421804
0.0033723335
0.0033360925
0.003288379
0.003254425
0.0032083164
0.0031765543
0.0031318619
0.0031022277
0.0030587964
0.0030311941
0.0029889035
0.0029632568
0.0029219816
0.0028981654
0.0028579837
0.0028355684
0.0027967673
0.0027759151
0.0027379368
0.0027164831
0.0026741626
0.054775658
0.047087638
0.041212708
0.036587962
0.032858976
0.029792585
0.027229158
0.025056182
0.023192022
0.021576114
0.020162731
0.018916436
0.017809854
0.01682079
0.015932069
0.015128928
0.014400272
0.0137357
0.01312798
0.012569337
0.012055149
0.011579227
0.011138826
0.010728682
0.010347491
0.0099904749
0.0096575027
0.0093439834
0.0090507924
0.0087733107
0.0085133169
0.0082660082
0.0080340012
0.0078121921
0.0076039962
0.0074039184
0.0072161481
0.0070347313
0.0068646124
0.0066993329
0.0065445703
0.0063933346
0.0062520155
0.0061130703
0.0059835924
0.005855454
0.0057364696
0.0056178708
0.0055082406
0.0053980931
0.0052968446
0.0051942144
0.0051005046
0.0050045934
0.0049176815
0.0048278084
0.0047470387
0.0046626169
0.0045874142
0.0045079249
0.0044377946
0.0043627656
0.0042972904
0.0042262858
0.0041651115
0.0040977355
0.0040405496
0.0039764555
0.0039229662
0.0038618637
0.0038117881
0.003753438
0.0037065079
0.0036506988
0.003606683
0.0035532012
0.0035119232
0.0034605454
0.0034218624
0.0033723909
0.0033361494
0.003288435
0.0032544805
0.003208371
0.0031766084
0.0031319152
0.0031022806
0.0030588485
0.0030312457
0.0029889544
0.0029633072
0.0029220314
0.0028982148
0.0028580324
0.0028356168
0.0027968149
0.0027759625
0.0027379836
0.0027165296
0.002674208
0.054775646
0.047087653
0.041212688
0.036587977
0.032858951
0.0297926
0.027229127
0.025056192
0.023191985
0.02157612
0.02016269
0.018916436
0.017809811
0.016820785
0.015932025
0.015128918
0.014400228
0.013735688
0.013127936
0.012569328
0.012055104
0.011579228
0.011138777
0.010728699
0.010347434
0.0099905151
0.0096574375
0.0093440521
0.0090507182
0.008773411
0.0085132347
0.0082661412
0.0080339125
0.0078123571
0.0076039029
0.0074041125
0.0072160532
0.0070349486
0.0068645209
0.0066995642
0.0065444885
0.0063935698
0.0062519483
0.0061133024
0.0059835394
0.0058556828
0.0057364232
0.0056181035
0.0055081881
0.0053983393
0.0052967753
0.005194478
0.0051004182
0.0050048662
0.0049175916
0.0048280703
0.0047469673
0.0046628451
0.0045873794
0.0045081081
0.0044377982
0.0043629121
0.0042973146
0.0042264203
0.0041651288
0.0040978845
0.0040405388
0.0039766311
0.0039229275
0.0038620528
0.0038117471
0.0037536071
0.0037064997
0.0036508192
0.0036067228
0.003553277
0.0035119894
0.0034606079
0.0034219271
0.0033724525
0.0033362204
0.0032884768
0.0032545693
0.0032084073
0.0031766727
0.0031319993
0.0031022809
0.0030589958
0.0030311762
0.0029891884
0.002963122
0.0029223775
0.0028980015
0.0028582044
0.0028358537
0.0027965049
0.0027758853
0.0027376621
0.0027212002
0.0026687138
0.054775646
0.047087654
0.041212687
0.036587973
0.032858947
0.029792592
0.027229117
0.025056179
0.02319197
0.021576101
0.02016267
0.018916413
0.017809787
0.016820757
0.015931997
0.015128888
0.014400198
0.013735657
0.013127906
0.012569299
0.012055077
0.011579202
0.011138754
0.01072868
0.01034742
0.0099905039
0.009657433
0.009344052
0.0090507262
0.0087734242
0.0085132569
0.0082661692
0.0080339497
0.0078124006
0.0076039553
0.0074041712
0.0072161199
0.0070350214
0.0068646004
0.0066996491
0.0065445786
0.0063936644
0.0062520466
0.0061134041
0.0059836434
0.0058557892
0.0057365305
0.0056182122
0.0055082968
0.0053984487
0.0052968839
0.0051945866
0.0051005255
0.0050049731
0.0049176967
0.0048281747
0.0047470699
0.0046629467
0.0045874791
0.0045082066
0.004437895
0.0043630075
0.0042974084
0.0042265127
0.0041652196
0.004097974
0.0040406268
0.0039767178
0.0039230128
0.0038621368
0.0038118298
0.0037536887
0.0037065801
0.0036508984
0.0036068009
0.003553354
0.0035120654
0.0034606828
0.0034220011
0.0033725255
0.0033362925
0.003288548
0.0032546396
0.0032084767
0.0031767414
0.0031320671
0.0031023479
0.0030590621
0.0030312417
0.0029892531
0.0029631861
0.0029224409
0.0028980642
0.0028582663
0.0028359152
0.0027965656
0.0027759454
0.0027377216
0.0027212593
0.0026687719
0.054775659
0.047087635
0.041212702
0.036587951
0.03285896
0.029792562
0.027229128
0.025056143
0.023191975
0.021576059
0.020162669
0.018916366
0.017809778
0.016820708
0.015931983
0.015128838
0.01440018
0.013735607
0.013127888
0.012569247
0.012055064
0.011579148
0.011138756
0.010728621
0.010347442
0.0099904389
0.0096574841
0.0093439809
0.0090508106
0.0087733479
0.0085133774
0.0082660896
0.0080341071
0.0078123197
0.007604148
0.0074040913
0.0072163433
0.0070349461
0.0068648464
0.0066995836
0.0065448364
0.006393614
0.0062523062
0.0061133707
0.0059839
0.0058557678
0.0057367872
0.0056181915
0.0055085622
0.0053984154
0.0052971654
0.0051945341
0.0051008213
0.0050049077
0.0049179918
0.0048281154
0.0047473412
0.0046629153
0.004587708
0.0045082143
0.0044380796
0.0043630459
0.0042975664
0.0042265573
0.0041653789
0.0040979984
0.0040408086
0.0039767102
0.0039232172
0.0038621107
0.0038120317
0.0037536776
0.0037067444
0.0036509316
0.003606913
0.0035534276
0.003512147
0.0034607658
0.0034220804
0.0033726056
0.0033363619
0.0032886444
0.0032546878
0.0032085753
0.0031768108
0.0031321147
0.0031024784
0.0030590436
0.0030314391
0.0029891451
0.0029634965
0.0029222181
0.0028984
0.0028582152
0.0028357982
0.0027969939
0.0027761403
0.0027381589
0.0027167038
0.0026743797
0.054775658
0.047087635
0.041212698
0.036587948
0.032858954
0.029792554
0.027229116
0.025056128
0.023191956
0.021576038
0.020162643
0.018916338
0.017809746
0.016820675
0.015931946
0.0151288
0.01440014
0.013735567
0.013127847
0.012569208
0.012055026
0.011579112
0.011138722
0.010728592
0.010347417
0.0099904209
0.0096574712
0.0093439768
0.0090508131
0.0087733607
0.0085133978
0.0082661213
0.0080341474
0.0078123713
0.0076042085
0.0074041624
0.0072164231
0.0070350351
0.0068649434
0.006699688
0.0065449476
0.0063937305
0.006252428
0.0061134958
0.005984029
0.0058558984
0.0057369202
0.0056183246
0.0055086966
0.0053985488
0.0052972993
0.005194666
0.0051009531
0.005005037
0.0049181205
0.0048282414
0.0047474662
0.0046630377
0.0045878291
0.0045083328
0.0044381966
0.0043631606
0.0042976795
0.0042266683
0.0041654882
0.0040981057
0.0040409144
0.0039768141
0.0039233198
0.0038622114
0.0038121311
0.0037537753
0.0037068409
0.0036510265
0.0036070067
0.0035535199
0.0035122381
0.0034608557
0.0034221691
0.0033726932
0.0033364483
0.0032887297
0.0032547722
0.0032086586
0.0031768932
0.003132196
0.0031025588
0.003059123
0.0030315178
0.0029892228
0.0029635734
0.002922294
0.0028984753
0.0028582895
0.0028358719
0.0027970667
0.0027762125
0.0027382305
0.0027167746
0.0026744494
0.054775646
0.04708765
0.04121268
0.036587963
0.032858927
0.029792566
0.02722908
0.025056133
0.023191912
0.021576035
0.020162593
0.018916326
0.017809691
0.016820654
0.015931887
0.015128773
0.014400079
0.013735536
0.013127784
0.012569179
0.01205496
0.011579092
0.011138653
0.01072859
0.010347344
0.0099904458
0.0096573932
0.0093440354
0.0090507325
0.008773458
0.0085133173
0.00826626
0.0080340694
0.0078125517
0.0076041356
0.0074043816
0.0072163582
0.0070352864
0.0068648901
0.0066999609
0.0065449107
0.006394013
0.0062524104
0.0061137789
0.0059840284
0.0058561801
0.0057369272
0.0056186106
0.0055086974
0.0053988475
0.0052972823
0.0051949808
0.0051009174
0.0050053592
0.0049180793
0.0048285507
0.0047474415
0.0046633114
0.004587839
0.0045085597
0.0044382429
0.004363349
0.0042977448
0.0042268428
0.0041655448
0.0040982932
0.0040409414
0.0039770268
0.0039233176
0.0038624361
0.0038121252
0.0037539789
0.0037068667
0.0036511802
0.0036070793
0.0035536279
0.0035123361
0.0034609494
0.0034222647
0.0033727851
0.0033365494
0.003288801
0.0032548901
0.0032087235
0.0031769859
0.0031323081
0.0031025868
0.0030592975
0.0030314752
0.0029894833
0.0029634146
0.0029226661
0.0028982878
0.0028584868
0.0028361341
0.0027967815
0.0027761599
0.0027379331
0.0027214697
0.0026689784
0.054775644
0.047087648
0.041212678
0.036587957
0.03285892
0.029792553
0.027229065
0.025056113
0.02319189
0.021576006
0.020162561
0.018916289
0.01780965
0.016820609
0.01593184
0.015128722
0.014400026
0.013735481
0.013127729
0.012569123
0.012054906
0.011579039
0.011138604
0.010728544
0.010347304
0.0099904107
0.0096573678
0.0093440166
0.0090507258
0.0087734599
0.0085133331
0.0082662861
0.0080341103
0.0078126038
0.0076042022
0.0074044599
0.0072164494
0.007035389
0.0068650032
0.0067000841
0.0065450416
0.0063941523
0.0062525545
0.0061139294
0.0059841811
0.0058563371
0.0057370844
0.0056187703
0.0055088556
0.005399007
0.0052974391
0.005195138
0.0051010712
0.0050055128
0.0049182291
0.0048286996
0.0047475868
0.0046634554
0.0045879795
0.0045086985
0.0044383788
0.0043634828
0.004297876
0.004226972
0.0041656716
0.0040984181
0.0040410639
0.0039771475
0.0039234361
0.0038625531
0.0038122401
0.0037540922
0.0037069782
0.0036512901
0.0036071876
0.0035537347
0.0035124415
0.0034610532
0.0034223672
0.0033728862
0.0033366493
0.0032888996
0.0032549876
0.0032088197
0.003177081
0.003132402
0.0031026797
0.0030593892
0.003031566
0.002989573
0.0029635033
0.0029227538
0.0028983747
0.0028585726
0.0028362192
0.0027968655
0.0027762433
0.0027380155
0.0027215515
0.0026690588
0.054775656
0.047087631
0.041212691
0.036587933
0.032858929
0.029792519
0.027229069
0.025056069
0.023191884
0.021575953
0.020162545
0.018916227
0.017809623
0.016820541
0.015931802
0.015128647
0.01439998
0.013735402
0.013127679
0.01256904
0.01205486
0.011578952
0.011138571
0.010728453
0.010347293
0.0099903167
0.0096573889
0.009343922
0.0090507865
0.0087733683
0.0085134388
0.0082662014
0.008034264
0.0078125294
0.0076044036
0.0074043983
0.0072166937
0.007035343
0.006865281
0.0067000571
0.00654534
0.0063941471
0.0062528608
0.0061139454
0.0059844879
0.0058563673
0.0057373926
0.0056188015
0.0055091722
0.0053990249
0.0052977706
0.005195135
0.005101415
0.0050054949
0.0049185701
0.0048286857
0.004747902
0.0046634672
0.0045882504
0.0045087473
0.0044386035
0.0043635604
0.0042980723
0.004227054
0.0041658675
0.0040984784
0.0040412809
0.0039771745
0.0039236744
0.0038625603
0.0038124747
0.0037541134
0.0037071742
0.0036513544
0.0036073305
0.0035538384
0.0035125529
0.0034611654
0.0034224755
0.0033729948
0.0033367469
0.0032890236
0.0032550633
0.0032089452
0.0031771773
0.0031324759
0.0031028362
0.0030593964
0.0030317889
0.0029894901
0.0029638385
0.0029225555
0.0028987347
0.0028585453
0.0028361261
0.0027973171
0.0027764615
0.0027384758
0.0027170186
0.0026746893
0.054775643
0.047087644
0.041212672
0.036587946
0.032858901
0.029792526
0.027229029
0.025056066
0.023191833
0.021575938
0.020162483
0.0189162
0.017809551
0.0168205
0.015931722
0.015128596
0.014399893
0.013735343
0.013127587
0.012568979
0.012054763
0.011578898
0.011138468
0.010728416
0.010347187
0.0099903071
0.0096572815
0.0093439492
0.0090506822
0.0087734402
0.0085133425
0.0082663232
0.00803418
0.0078127031
0.0076043354
0.0074046219
0.0072166439
0.0070356092
0.0068652522
0.0067003537
0.0065453347
0.00639446
0.0062528797
0.0061142631
0.0059845264
0.0058566856
0.0057374396
0.0056191243
0.0055092127
0.0053993595
0.0052977922
0.0051954842
0.0051014164
0.0050058497
0.0049185641
0.004829026
0.0047479102
0.0046637706
0.0045882911
0.0045090026
0.0044386787
0.0043637761
0.0042981648
0.0042272547
0.0041659502
0.0040986908
0.0040413331
0.0039774109
0.0039236964
0.0038628079
0.0038124922
0.0037543392
0.0037072225
0.0036515299
0.0036074247
0.0035539677
0.0035126719
0.0034612799
0.0034225915
0.0033731069
0.0033368678
0.0032891146
0.0032552006
0.0032090295
0.0031772889
0.0031326067
0.0031028828
0.0030595892
0.0030317645
0.0029897684
0.0029636976
0.0029229449
0.0028985648
0.0028587598
0.0028364051
0.0027970489
0.0027764255
0.0027381951
0.0027217301
0.0026692347
0.054775655
0.047087627
0.041212684
0.03658792
0.03285891
0.029792489
0.02722903
0.025056017
0.023191821
0.021575876
0.020162457
0.018916126
0.017809511
0.016820415
0.015931667
0.015128502
0.014399827
0.013735241
0.013127514
0.01256887
0.01205469
0.011578782
0.011138406
0.010728294
0.010347147
0.0099901822
0.0096572746
0.009343826
0.0090507179
0.0087733245
0.0085134285
0.0082662212
0.0080343213
0.00781262
0.0076045327
0.0074045613
0.0072168927
0.0070355734
0.0068655421
0.0067003447
0.0065456509
0.0063944783
0.0062532076
0.0061143057
0.0059848569
0.0058567435
0.0057377719
0.0056191831
0.0055095528
0.0053994041
0.0052981458
0.0051955066
0.005101781
0.0050058557
0.0049189246
0.0048290341
0.0047482439
0.0046638028
0.0045885796
0.0045090702
0.0044389204
0.0043638711
0.0042983775
0.0042273533
0.0041661617
0.004098767
0.0040415649
0.0039774533
0.0039239488
0.0038628299
0.0038127403
0.0037543746
0.0037074317
0.0036516078
0.0036075804
0.0035540845
0.0035127959
0.0034614046
0.0034227119
0.0033732276
0.0033369771
0.0032892504
0.0032552877
0.0032091665
0.0031773962
0.0031326918
0.00310305
0.0030596072
0.0030319978
0.0029896961
0.0029640428
0.0029227569
0.0028989346
0.0028587425
0.0028363217
0.0027975102
0.0027766531
0.0027386649
0.0027172062
0.0026748744
0.054775655
0.047087626
0.041212679
0.036587912
0.032858896
0.029792472
0.027229005
0.025055986
0.023191783
0.021575832
0.020162404
0.018916066
0.017809443
0.016820341
0.015931585
0.015128414
0.014399732
0.013735141
0.013127409
0.012568763
0.01205458
0.011578672
0.011138297
0.010728189
0.010347045
0.0099900888
0.0096571887
0.0093437533
0.0090506571
0.0087732813
0.0085134016
0.008266215
0.008034335
0.0078126558
0.0076045906
0.0074046404
0.0072169942
0.0070356931
0.0068656824
0.0067004986
0.0065458222
0.0063946579
0.0062534006
0.0061145023
0.0059850626
0.0058569492
0.0057379831
0.0056193914
0.005509764
0.0053996103
0.0052983534
0.0051957078
0.0051019827
0.0050060505
0.0049191192
0.004829222
0.0047484307
0.0046639836
0.0045887587
0.0045092443
0.0044390921
0.0043640387
0.0042985424
0.0042275147
0.0041663205
0.0040989224
0.0040417181
0.0039776032
0.003924097
0.0038629748
0.0038128837
0.003754515
0.0037075705
0.0036517441
0.003607715
0.003554217
0.0035129266
0.0034615335
0.0034228391
0.0033733531
0.003337101
0.0032893727
0.0032554085
0.0032092858
0.0031775141
0.0031328082
0.0031031652
0.0030597209
0.0030321104
0.0029898072
0.002964153
0.0029228656
0.0028990424
0.002858849
0.0028364272
0.0027976146
0.0027767565
0.0027387673
0.0027173075
0.0026749744
0.054775642
0.047087639
0.041212658
0.036587921
0.032858864
0.029792472
0.027228957
0.025055974
0.023191719
0.021575803
0.020162324
0.018916019
0.017809347
0.016820274
0.015931475
0.015128329
0.014399608
0.013735042
0.013127273
0.012568655
0.012054432
0.011578566
0.011138139
0.010728095
0.010346881
0.0099900209
0.0096570233
0.0093437244
0.0090504993
0.0087733037
0.0085132607
0.0082662989
0.0080342195
0.0078128071
0.0076045067
0.0074048586
0.0072169451
0.0070359703
0.006865669
0.0067008199
0.0065458436
0.0063950049
0.0062534533
0.0061148593
0.0059851385
0.0058573085
0.005738068
0.0056197547
0.005509841
0.0053999836
0.0052984095
0.0051960933
0.0051020161
0.0050064391
0.0049191428
0.0048295935
0.0047484669
0.004664316
0.0045888258
0.0045095264
0.0044391924
0.0043642794
0.0042986588
0.0042277389
0.0041664259
0.0040991574
0.0040417918
0.0039778612
0.0039241396
0.0038632432
0.003812921
0.0037547606
0.003707638
0.0036519385
0.003607828
0.0035543644
0.0035130637
0.0034616655
0.0034229726
0.0033734821
0.0033372389
0.0032894801
0.0032555623
0.0032093858
0.0031776417
0.0031329544
0.0031032272
0.0030599287
0.003032101
0.0029901001
0.0029640265
0.0029232693
0.0028988865
0.0028590771
0.0028367201
0.0027973596
0.002776734
0.0027384993
0.0027220326
0.0026695317
0.054775653
0.047087621
0.041212669
0.036587893
0.032858867
0.02979243
0.027228948
0.025055915
0.023191694
0.021575725
0.020162279
0.018915923
0.017809281
0.016820161
0.015931387
0.015128198
0.014399501
0.013734895
0.013127151
0.012568493
0.012054303
0.01157839
0.011138013
0.010727908
0.010346772
0.0099898286
0.0096569461
0.0093435357
0.009050468
0.0087731301
0.0085132889
0.0082661515
0.0080343179
0.0078126953
0.0076046799
0.0074047883
0.0072171897
0.0070359431
0.0068659726
0.0067008343
0.0065461871
0.0063950569
0.0062538171
0.0061149411
0.0059855085
0.0058574073
0.0057384403
0.0056198533
0.0055102194
0.0054000657
0.0052987987
0.0051961505
0.0051024133
0.005006477
0.0049195332
0.0048296309
0.004748828
0.004664375
0.0045891399
0.0045096187
0.0044394579
0.0043643974
0.0042988939
0.0042278592
0.0041666586
0.0040992542
0.0040420438
0.0039779233
0.0039244112
0.0038632842
0.0038131876
0.0037548143
0.0037078652
0.0036520341
0.0036080012
0.0035544984
0.0035132047
0.003461807
0.0034231096
0.0033736192
0.0033373644
0.003289632
0.0032556653
0.0032095385
0.0031777647
0.0031330549
0.0031034098
0.0030599619
0.0030323493
0.0029900428
0.0029643865
0.0029230961
0.002899271
0.0028590744
0.0028366512
0.0027978351
0.0027769759
0.0027389834
0.0027175226
0.0026751856
0.05477564
0.047087634
0.041212647
0.036587901
0.032858832
0.029792427
0.027228896
0.025055895
0.023191621
0.021575684
0.020162186
0.018915859
0.017809167
0.016820073
0.015931252
0.015128086
0.014399346
0.013734762
0.013126977
0.012568344
0.01205411
0.011578235
0.011137804
0.01072776
0.010346552
0.0099897029
0.009656723
0.0093434485
0.0090502548
0.0087730976
0.0085131001
0.0082661892
0.008034167
0.0078128137
0.0076045765
0.0074049898
0.0072171379
0.0070362194
0.0068659714
0.0067011674
0.0065462319
0.0063954242
0.0062538994
0.0061153228
0.0059856161
0.0058577925
0.0057385564
0.0056202413
0.0055103257
0.0054004615
0.0052988817
0.0051965559
0.0051024711
0.0050068833
0.0049195788
0.0048300186
0.0047488836
0.0046647224
0.0045892241
0.0045099152
0.0044395735
0.0043646519
0.0042990242
0.0042280965
0.0041667769
0.0040995013
0.0040421299
0.0039781926
0.0039244658
0.0038635632
0.0038132363
0.0037550702
0.0037079434
0.0036522386
0.0036081241
0.0035546557
0.0035133513
0.0034619485
0.0034232523
0.0033737575
0.0033375111
0.0032897483
0.0032558275
0.0032096472
0.0031779004
0.0031332094
0.0031034797
0.0030601776
0.0030323477
0.0029903433
0.0029642676
0.002923507
0.0028991224
0.0028593096
0.0028369509
0.0027975872
0.00277696
0.0027387223
0.0027222543
0.0026697493
0.054775652
0.047087614
0.041212657
0.03658787
0.032858834
0.029792379
0.027228882
0.025055827
0.023191587
0.021575595
0.020162128
0.018915746
0.017809082
0.016819936
0.015931139
0.015127926
0.014399206
0.013734578
0.013126814
0.012568137
0.012053932
0.011578006
0.011137622
0.010727512
0.01034638
0.0099894435
0.0096565799
0.0093431906
0.0090501588
0.0087728582
0.0085130702
0.0082659865
0.0080342196
0.0078126633
0.0076047213
0.0074049006
0.0072173735
0.0070361932
0.0068662832
0.0067011991
0.0065465961
0.0063955037
0.0062542909
0.0061154365
0.0059860163
0.0058579233
0.005738958
0.0056203701
0.0055107309
0.0054005708
0.0052992948
0.0051966372
0.0051028894
0.0050069426
0.0049199879
0.004830075
0.0047492618
0.0046647984
0.0045895538
0.0045100229
0.0044398536
0.0043647842
0.004299273
0.0042282302
0.0041670225
0.0040996109
0.0040423942
0.003978267
0.0039247493
0.003863616
0.0038135145
0.0037551354
0.0037081817
0.0036523452
0.0036083081
0.0035548004
0.0035135028
0.0034621005
0.0034233995
0.0033739048
0.0033376467
0.0032899101
0.0032559404
0.0032098097
0.003178033
0.0031333194
0.0031036718
0.0030602203
0.0030326053
0.0029902952
0.0029646369
0.0029233429
0.0028995159
0.002859316
0.0028368909
0.0027980718
0.0027772107
0.0027392152
0.0027177526
0.0026754125
0.05477565
0.047087612
0.04121265
0.036587858
0.032858814
0.029792351
0.027228843
0.025055778
0.023191526
0.021575521
0.020162041
0.018915646
0.017808967
0.016819807
0.015930995
0.015127767
0.014399033
0.01373439
0.013126612
0.012567923
0.012053706
0.01157777
0.011137378
0.010727263
0.010346129
0.0099891939
0.0096563369
0.009342958
0.009049944
0.008772664
0.0085129062
0.008265853
0.0080341278
0.0078126095
0.0076047167
0.0074049364
0.007217459
0.0070363151
0.0068664492
0.0067013921
0.0065468231
0.0063957465
0.0062545561
0.0061157074
0.0059862995
0.0058582049
0.0057392445
0.0056206502
0.0055110119
0.0054008422
0.0052995653
0.0051968968
0.0051031475
0.0050071894
0.004920233
0.0048303095
0.004749494
0.0046650217
0.0045897741
0.0045102361
0.0044400631
0.0043649881
0.004299473
0.0042284255
0.0041672142
0.0040997981
0.0040425785
0.0039784469
0.003924927
0.0038637894
0.0038136859
0.003755303
0.0037083472
0.0036525076
0.0036084681
0.0035549578
0.0035136579
0.0034622533
0.00342355
0.0033740531
0.0033377929
0.0032900543
0.0032560826
0.00320995
0.0031781714
0.003133456
0.0031038067
0.0030603532
0.0030327369
0.0029904248
0.0029647653
0.0029234693
0.0028996413
0.0028594395
0.002837013
0.0027981928
0.0027773302
0.0027393333
0.002717869
0.0026755277
0.054775649
0.047087607
0.041212642
0.036587844
0.032858792
0.029792321
0.027228802
0.025055725
0.02319146
0.021575442
0.020161947
0.018915537
0.017808842
0.016819666
0.015930837
0.015127592
0.014398841
0.013734182
0.013126387
0.012567682
0.01205345
0.011577501
0.011137098
0.010726974
0.010345836
0.0099888996
0.0096560468
0.0093426775
0.0090496797
0.0087724227
0.008512695
0.0082656789
0.0080339969
0.0078125272
0.0076046857
0.0074049593
0.0072175337
0.0070364402
0.006866618
0.0067016008
0.0065470625
0.0063960119
0.0062548385
0.0061160029
0.005986601
0.0058585098
0.0057395481
0.0056209512
0.0055113075
0.0054011322
0.005299848
0.0051971727
0.0051034156
0.0050074506
0.0049204867
0.0048305567
0.0047497344
0.0046652561
0.0045900025
0.004510459
0.0044402809
0.0043652008
0.0042996813
0.0042286292
0.0041674141
0.0040999939
0.0040427709
0.0039786357
0.0039251126
0.0038639718
0.0038138654
0.0037554795
0.0037085213
0.0036526789
0.0036086372
0.0035551243
0.0035138223
0.0034624152
0.0034237102
0.0033742109
0.0033379491
0.0032902083
0.003256235
0.0032101003
0.0031783203
0.003133603
0.0031039523
0.003060497
0.0030328795
0.0029905656
0.0029649049
0.0029236073
0.0028997782
0.0028595748
0.0028371473
0.0027983255
0.002777462
0.0027394636
0.0027179984
0.0026756554
0.054775648
0.047087604