/*--------------------------------*- C++ -*----------------------------------*\
| =========                 |                                                 |
| \\      /  F ield         | OpenFOAM: The Open Source CFD Toolbox           |
|  \\    /   O peration     | Version:  2406                                  |
|   \\  /    A nd           | Website:  www.openfoam.com                      |
|    \\/     M anipulation  |                                                 |
\*---------------------------------------------------------------------------*/
FoamFile
{
    version     2.0;
    format      ascii;
    arch        "LSB;label=32;scalar=64";
    class       volScalarField;
    location    "1000";
    object      nut;
}
// * * * * * * * * * * * * * * * * * * * * * * * * * * * * * * * * * * * * * //

dimensions      [0 2 -1 0 0 0 0];

internalField   nonuniform List<scalar> 
16045
(
0.0001488914
0.0001471283
0.00014558639
0.0001442204
0.00014299473
0.00014188646
0.0001408738
0.00013994503
0.00013908468
0.00013828755
0.00013754107
0.00013684436
0.00013618598
0.00013556828
0.00013497992
0.00013442594
0.00013389448
0.00013339294
0.00013290857
0.00013245087
0.00013200611
0.00013158559
0.00013117458
0.00013078594
0.00013040406
0.00013004301
0.00012968652
0.00012934958
0.00012901542
0.00012869967
0.00012838532
0.00012808835
0.00012779168
0.00012751143
0.00012723065
0.0001269654
0.00012669895
0.00012644725
0.00012619374
0.00012595438
0.00012571255
0.00012548456
0.00012525328
0.00012503577
0.00012481411
0.00012460622
0.00012439349
0.0001241943
0.00012399006
0.0001237986
0.00012360252
0.00012341797
0.00012322964
0.00012305145
0.00012287024
0.00012269825
0.00012252326
0.00012235756
0.00012218789
0.00012202848
0.00012186356
0.00012171005
0.00012154985
0.00012140138
0.00012124632
0.0001211018
0.00012095234
0.00012081093
0.00012066712
0.00012052864
0.00012038981
0.00012025477
0.00012011981
0.00011998884
0.000119857
0.00011972997
0.00011960157
0.00011947734
0.0001193533
0.00011923094
0.00011911127
0.00011899098
0.00011887512
0.00011875653
0.00011864564
0.00011852651
0.00011842256
0.00011830141
0.00011820486
0.00011808109
0.00011799285
0.00011786531
0.000117784
0.0001176595
0.00011757078
0.00011746496
0.00011737835
0.00011727164
0.00011709664
0.00011710921
0.0001488914
0.0001471283
0.00014558638
0.00014422039
0.00014299472
0.00014188645
0.00014087379
0.00013994501
0.00013908466
0.00013828752
0.00013754104
0.00013684433
0.00013618594
0.00013556825
0.00013497988
0.0001344259
0.00013389444
0.00013339289
0.00013290852
0.00013245083
0.00013200606
0.00013158554
0.00013117453
0.00013078589
0.00013040401
0.00013004297
0.00012968648
0.00012934953
0.00012901538
0.00012869963
0.00012838528
0.00012808831
0.00012779165
0.0001275114
0.00012723063
0.00012696538
0.00012669893
0.00012644723
0.00012619372
0.00012595437
0.00012571255
0.00012548455
0.00012525328
0.00012503577
0.00012481412
0.00012460623
0.00012439351
0.00012419432
0.00012399007
0.00012379862
0.00012360254
0.00012341799
0.00012322967
0.00012305148
0.00012287027
0.00012269829
0.0001225233
0.0001223576
0.00012218793
0.00012202852
0.0001218636
0.00012171009
0.0001215499
0.00012140142
0.00012124636
0.00012110184
0.00012095239
0.00012081098
0.00012066717
0.00012052869
0.00012038986
0.00012025482
0.00012011986
0.00011998889
0.00011985705
0.00011973002
0.00011960163
0.00011947739
0.00011935336
0.00011923099
0.00011911132
0.00011899103
0.00011887518
0.00011875658
0.00011864569
0.00011852656
0.00011842262
0.00011830146
0.00011820492
0.00011808114
0.0001179929
0.00011786536
0.00011778405
0.00011765956
0.00011757083
0.00011746501
0.00011737841
0.0001172717
0.0001170967
0.00011710926
0.0001488914
0.0001471283
0.00014558638
0.00014422039
0.00014299471
0.00014188645
0.00014087378
0.000139945
0.00013908465
0.00013828751
0.00013754103
0.00013684432
0.00013618593
0.00013556824
0.00013497987
0.00013442589
0.00013389443
0.00013339288
0.00013290851
0.00013245081
0.00013200605
0.00013158553
0.00013117452
0.00013078588
0.000130404
0.00013004296
0.00012968647
0.00012934952
0.00012901537
0.00012869962
0.00012838528
0.00012808831
0.00012779165
0.00012751141
0.00012723064
0.00012696539
0.00012669895
0.00012644725
0.00012619375
0.0001259544
0.00012571258
0.00012548458
0.00012525332
0.00012503581
0.00012481416
0.00012460628
0.00012439355
0.00012419437
0.00012399013
0.00012379868
0.0001236026
0.00012341805
0.00012322973
0.00012305154
0.00012287033
0.00012269834
0.00012252335
0.00012235765
0.00012218799
0.00012202858
0.00012186366
0.00012171015
0.00012154995
0.00012140148
0.00012124642
0.0001211019
0.00012095244
0.00012081104
0.00012066722
0.00012052875
0.00012038992
0.00012025487
0.00012011991
0.00011998894
0.0001198571
0.00011973007
0.00011960168
0.00011947745
0.00011935341
0.00011923105
0.00011911137
0.00011899109
0.00011887523
0.00011875664
0.00011864575
0.00011852661
0.00011842267
0.00011830152
0.00011820497
0.0001180812
0.00011799295
0.00011786541
0.0001177841
0.00011765961
0.00011757088
0.00011746506
0.00011737846
0.00011727175
0.00011709675
0.00011710931
0.0001488914
0.0001471283
0.00014558638
0.00014422039
0.00014299471
0.00014188644
0.00014087378
0.000139945
0.00013908465
0.0001382875
0.00013754102
0.00013684431
0.00013618592
0.00013556822
0.00013497985
0.00013442587
0.00013389441
0.00013339285
0.00013290849
0.00013245079
0.00013200602
0.0001315855
0.00013117449
0.00013078586
0.00013040397
0.00013004293
0.00012968645
0.0001293495
0.00012901536
0.00012869961
0.00012838527
0.00012808831
0.00012779165
0.00012751142
0.00012723065
0.00012696541
0.00012669897
0.00012644728
0.00012619378
0.00012595444
0.00012571262
0.00012548464
0.00012525337
0.00012503587
0.00012481422
0.00012460635
0.00012439362
0.00012419444
0.0001239902
0.00012379876
0.00012360268
0.00012341813
0.00012322982
0.00012305163
0.00012287042
0.00012269844
0.00012252345
0.00012235775
0.00012218808
0.00012202867
0.00012186376
0.00012171025
0.00012155005
0.00012140158
0.00012124652
0.000121102
0.00012095255
0.00012081114
0.00012066733
0.00012052885
0.00012039002
0.00012025497
0.00012012002
0.00011998905
0.0001198572
0.00011973018
0.00011960178
0.00011947755
0.00011935351
0.00011923115
0.00011911148
0.00011899119
0.00011887533
0.00011875674
0.00011864585
0.00011852672
0.00011842277
0.00011830162
0.00011820507
0.0001180813
0.00011799306
0.00011786552
0.00011778421
0.00011765971
0.00011757099
0.00011746517
0.00011737856
0.00011727186
0.00011709685
0.00011710942
0.0001488914
0.0001471283
0.00014558638
0.00014422039
0.00014299471
0.00014188644
0.00014087377
0.00013994499
0.00013908464
0.0001382875
0.00013754101
0.0001368443
0.00013618591
0.0001355682
0.00013497984
0.00013442586
0.00013389439
0.00013339284
0.00013290847
0.00013245077
0.000132006
0.00013158549
0.00013117448
0.00013078584
0.00013040396
0.00013004293
0.00012968644
0.0001293495
0.00012901536
0.00012869962
0.00012838528
0.00012808832
0.00012779168
0.00012751145
0.00012723068
0.00012696545
0.00012669902
0.00012644733
0.00012619384
0.0001259545
0.0001257127
0.00012548471
0.00012525346
0.00012503596
0.00012481432
0.00012460644
0.00012439373
0.00012419454
0.00012399031
0.00012379887
0.00012360279
0.00012341825
0.00012322993
0.00012305175
0.00012287054
0.00012269856
0.00012252357
0.00012235787
0.0001221882
0.00012202879
0.00012186388
0.00012171037
0.00012155017
0.0001214017
0.00012124664
0.00012110212
0.00012095266
0.00012081126
0.00012066744
0.00012052897
0.00012039014
0.00012025509
0.00012012013
0.00011998916
0.00011985732
0.00011973029
0.0001196019
0.00011947767
0.00011935363
0.00011923127
0.00011911159
0.0001189913
0.00011887545
0.00011875685
0.00011864596
0.00011852683
0.00011842289
0.00011830173
0.00011820519
0.00011808141
0.00011799317
0.00011786563
0.00011778432
0.00011765982
0.0001175711
0.00011746528
0.00011737867
0.00011727197
0.00011709697
0.00011710953
0.0001488914
0.0001471283
0.00014558638
0.00014422038
0.00014299471
0.00014188644
0.00014087377
0.00013994499
0.00013908463
0.00013828749
0.000137541
0.00013684429
0.00013618589
0.00013556819
0.00013497982
0.00013442584
0.00013389437
0.00013339282
0.00013290845
0.00013245075
0.00013200599
0.00013158547
0.00013117446
0.00013078583
0.00013040395
0.00013004291
0.00012968643
0.0001293495
0.00012901536
0.00012869963
0.0001283853
0.00012808834
0.0001277917
0.00012751148
0.00012723073
0.0001269655
0.00012669908
0.0001264474
0.00012619392
0.00012595458
0.00012571279
0.00012548481
0.00012525356
0.00012503607
0.00012481443
0.00012460656
0.00012439385
0.00012419467
0.00012399044
0.000123799
0.00012360293
0.00012341839
0.00012323007
0.00012305189
0.00012287068
0.0001226987
0.00012252371
0.00012235802
0.00012218835
0.00012202894
0.00012186402
0.00012171052
0.00012155032
0.00012140185
0.00012124679
0.00012110227
0.00012095281
0.00012081141
0.00012066759
0.00012052912
0.00012039029
0.00012025524
0.00012012028
0.00011998931
0.00011985747
0.00011973044
0.00011960205
0.00011947782
0.00011935378
0.00011923142
0.00011911174
0.00011899145
0.0001188756
0.000118757
0.00011864611
0.00011852698
0.00011842304
0.00011830188
0.00011820533
0.00011808156
0.00011799332
0.00011786578
0.00011778447
0.00011765997
0.00011757125
0.00011746543
0.00011737882
0.00011727212
0.00011709712
0.00011710968
0.0001488914
0.0001471283
0.00014558638
0.00014422039
0.0001429947
0.00014188644
0.00014087377
0.00013994498
0.00013908462
0.00013828748
0.00013754099
0.00013684428
0.00013618588
0.00013556818
0.0001349798
0.00013442582
0.00013389435
0.0001333928
0.00013290843
0.00013245074
0.00013200596
0.00013158545
0.00013117444
0.00013078582
0.00013040393
0.00013004292
0.00012968642
0.00012934951
0.00012901536
0.00012869966
0.00012838531
0.00012808839
0.00012779173
0.00012751154
0.00012723077
0.00012696558
0.00012669914
0.0001264475
0.000126194
0.0001259547
0.00012571288
0.00012548494
0.00012525367
0.00012503621
0.00012481456
0.00012460671
0.00012439399
0.00012419483
0.00012399059
0.00012379917
0.00012360309
0.00012341856
0.00012323023
0.00012305207
0.00012287085
0.00012269888
0.00012252388
0.0001223582
0.00012218852
0.00012202912
0.0001218642
0.00012171069
0.00012155049
0.00012140202
0.00012124696
0.00012110245
0.00012095299
0.00012081159
0.00012066776
0.00012052929
0.00012039046
0.00012025542
0.00012012045
0.00011998949
0.00011985764
0.00011973061
0.00011960222
0.00011947799
0.00011935395
0.00011923159
0.00011911191
0.00011899162
0.00011887577
0.00011875717
0.00011864628
0.00011852715
0.00011842321
0.00011830205
0.0001182055
0.00011808173
0.00011799349
0.00011786595
0.00011778464
0.00011766014
0.00011757142
0.00011746559
0.000117379
0.00011727229
0.00011709729
0.00011710984
0.00014889137
0.00014712835
0.00014558632
0.00014422046
0.00014299462
0.00014188654
0.00014087365
0.0001399451
0.00013908448
0.00013828762
0.00013754083
0.00013684442
0.00013618571
0.00013556831
0.00013497964
0.00013442595
0.00013389419
0.00013339293
0.00013290824
0.0001324509
0.00013200572
0.0001315857
0.00013117408
0.00013078623
0.00013040339
0.00013004357
0.00012968562
0.00012935047
0.00012901424
0.00012870098
0.00012838384
0.00012809012
0.00012778988
0.00012751369
0.00012722855
0.00012696813
0.00012669658
0.00012645039
0.0001261912
0.00012595782
0.00012570998
0.00012548812
0.00012525081
0.00012503935
0.00012481178
0.00012460984
0.00012439118
0.00012419812
0.00012398751
0.00012380287
0.0001235995
0.00012342282
0.00012322613
0.00012305674
0.00012286655
0.00012270347
0.00012251997
0.00012236211
0.00012218552
0.000122032
0.00012186222
0.0001217127
0.0001215491
0.00012140381
0.00012124539
0.00012110478
0.0001209506
0.00012081486
0.00012066452
0.00012053314
0.00012038711
0.00012025879
0.00012011814
0.0001199914
0.00011985692
0.00011973112
0.00011960244
0.00011947811
0.00011935417
0.00011923173
0.00011911242
0.00011899111
0.00011887698
0.00011875648
0.00011864666
0.00011852831
0.00011842119
0.00011830572
0.00011820076
0.00011808895
0.00011798409
0.00011787789
0.00011777395
0.0001176652
0.00011757922
0.00011745055
0.00011737371
0.0001172565
0.0001172966
0.00011686722
0.00014889137
0.00014712835
0.00014558632
0.00014422046
0.00014299462
0.00014188653
0.00014087365
0.00013994509
0.00013908448
0.0001382876
0.00013754083
0.0001368444
0.0001361857
0.00013556829
0.00013497962
0.00013442593
0.00013389417
0.00013339291
0.00013290822
0.00013245087
0.0001320057
0.00013158568
0.00013117407
0.00013078621
0.00013040338
0.00013004355
0.00012968562
0.00012935047
0.00012901426
0.00012870099
0.00012838388
0.00012809015
0.00012778994
0.00012751374
0.00012722863
0.00012696821
0.00012669669
0.0001264505
0.00012619132
0.00012595795
0.00012571013
0.00012548828
0.00012525097
0.00012503953
0.00012481196
0.00012461003
0.00012439137
0.00012419833
0.00012398771
0.00012380309
0.00012359971
0.00012342305
0.00012322634
0.00012305697
0.00012286677
0.00012270371
0.00012252019
0.00012236234
0.00012218574
0.00012203223
0.00012186244
0.00012171294
0.00012154933
0.00012140404
0.00012124562
0.00012110501
0.00012095082
0.00012081509
0.00012066474
0.00012053337
0.00012038733
0.00012025901
0.00012011836
0.00011999162
0.00011985714
0.00011973135
0.00011960266
0.00011947833
0.00011935439
0.00011923195
0.00011911264
0.00011899133
0.0001188772
0.00011875671
0.00011864688
0.00011852853
0.00011842141
0.00011830595
0.00011820098
0.00011808917
0.00011798431
0.00011787811
0.00011777417
0.00011766542
0.00011757944
0.00011745077
0.00011737393
0.00011725672
0.00011729682
0.00011686744
0.0001488914
0.00014712829
0.00014558638
0.00014422038
0.0001429947
0.00014188642
0.00014087376
0.00013994496
0.00013908461
0.00013828745
0.00013754096
0.00013684423
0.00013618584
0.00013556812
0.00013497975
0.00013442576
0.00013389429
0.00013339273
0.00013290836
0.00013245066
0.00013200589
0.00013158538
0.00013117438
0.00013078576
0.00013040389
0.00013004288
0.00012968642
0.00012934951
0.0001290154
0.0001286997
0.00012838541
0.0001280885
0.00012779189
0.00012751172
0.00012723101
0.00012696584
0.00012669945
0.00012644783
0.00012619438
0.00012595511
0.00012571334
0.00012548542
0.00012525419
0.00012503675
0.00012481512
0.0001246073
0.00012439459
0.00012419546
0.00012399122
0.00012379982
0.00012360374
0.00012341923
0.0001232309
0.00012305275
0.00012287152
0.00012269957
0.00012252456
0.00012235889
0.0001221892
0.00012202981
0.00012186488
0.00012171138
0.00012155118
0.00012140271
0.00012124765
0.00012110313
0.00012095367
0.00012081227
0.00012066844
0.00012052997
0.00012039113
0.00012025609
0.00012012113
0.00011999016
0.00011985831
0.00011973128
0.00011960289
0.00011947865
0.00011935462
0.00011923225
0.00011911258
0.00011899229
0.00011887643
0.00011875783
0.00011864695
0.00011852781
0.00011842387
0.00011830271
0.00011820616
0.00011808239
0.00011799415
0.00011786661
0.0001177853
0.0001176608
0.00011757208
0.00011746625
0.00011737965
0.00011727294
0.00011709795
0.0001171105
0.0001488914
0.0001471283
0.00014558638
0.00014422038
0.0001429947
0.00014188642
0.00014087375
0.00013994496
0.00013908459
0.00013828745
0.00013754094
0.00013684422
0.00013618581
0.00013556811
0.00013497972
0.00013442574
0.00013389426
0.0001333927
0.00013290832
0.00013245063
0.00013200586
0.00013158535
0.00013117435
0.00013078574
0.00013040386
0.00013004287
0.0001296864
0.00012934952
0.0001290154
0.00012869974
0.00012838543
0.00012808856
0.00012779194
0.00012751181
0.00012723109
0.00012696596
0.00012669957
0.00012644798
0.00012619454
0.00012595528
0.00012571353
0.00012548562
0.0001252544
0.00012503697
0.00012481536
0.00012460754
0.00012439485
0.00012419571
0.0001239915
0.00012380008
0.00012360402
0.0001234195
0.00012323119
0.00012305302
0.00012287181
0.00012269984
0.00012252485
0.00012235916
0.00012218949
0.00012203009
0.00012186517
0.00012171166
0.00012155146
0.00012140299
0.00012124792
0.0001211034
0.00012095394
0.00012081254
0.00012066872
0.00012053024
0.00012039141
0.00012025636
0.0001201214
0.00011999043
0.00011985858
0.00011973155
0.00011960316
0.00011947893
0.00011935489
0.00011923252
0.00011911285
0.00011899256
0.0001188767
0.0001187581
0.00011864722
0.00011852808
0.00011842414
0.00011830298
0.00011820643
0.00011808266
0.00011799441
0.00011786688
0.00011778557
0.00011766107
0.00011757235
0.00011746652
0.00011737992
0.00011727322
0.00011709822
0.00011711077
0.00014889137
0.00014712835
0.00014558632
0.00014422046
0.00014299461
0.00014188652
0.00014087363
0.00013994508
0.00013908445
0.00013828758
0.00013754078
0.00013684435
0.00013618564
0.00013556823
0.00013497954
0.00013442585
0.00013389407
0.00013339282
0.00013290812
0.00013245077
0.0001320056
0.00013158559
0.00013117397
0.00013078613
0.0001304033
0.0001300435
0.00012968558
0.00012935047
0.00012901427
0.00012870106
0.00012838396
0.00012809029
0.00012779011
0.00012751398
0.0001272289
0.00012696855
0.00012669706
0.00012645093
0.0001261918
0.00012595847
0.0001257107
0.00012548888
0.00012525163
0.0001250402
0.00012481268
0.00012461076
0.00012439215
0.00012419909
0.00012398852
0.00012380389
0.00012360054
0.00012342386
0.00012322719
0.00012305779
0.00012286763
0.00012270454
0.00012252105
0.00012236318
0.0001221866
0.00012203308
0.0001218633
0.00012171378
0.00012155018
0.00012140488
0.00012124646
0.00012110585
0.00012095166
0.00012081592
0.00012066558
0.00012053419
0.00012038816
0.00012025983
0.00012011919
0.00011999244
0.00011985797
0.00011973217
0.00011960348
0.00011947915
0.00011935521
0.00011923276
0.00011911345
0.00011899214
0.00011887802
0.00011875752
0.00011864769
0.00011852934
0.00011842222
0.00011830675
0.00011820179
0.00011808998
0.00011798511
0.00011787891
0.00011777497
0.00011766622
0.00011758025
0.00011745157
0.00011737473
0.00011725752
0.00011729762
0.00011686824
0.00014889137
0.00014712834
0.00014558632
0.00014422045
0.00014299461
0.00014188651
0.00014087363
0.00013994506
0.00013908444
0.00013828756
0.00013754077
0.00013684433
0.00013618562
0.0001355682
0.00013497952
0.00013442581
0.00013389404
0.00013339277
0.00013290808
0.00013245073
0.00013200556
0.00013158553
0.00013117393
0.00013078608
0.00013040327
0.00013004346
0.00012968557
0.00012935044
0.00012901429
0.00012870105
0.000128384
0.00012809032
0.00012779019
0.00012751405
0.00012722902
0.00012696867
0.00012669722
0.0001264511
0.00012619199
0.00012595869
0.00012571092
0.00012548914
0.00012525188
0.00012504049
0.00012481295
0.00012461107
0.00012439244
0.00012419943
0.00012398882
0.00012380423
0.00012360085
0.00012342422
0.00012322751
0.00012305815
0.00012286794
0.0001227049
0.00012252137
0.00012236353
0.00012218692
0.00012203342
0.00012186362
0.00012171412
0.00012155051
0.00012140522
0.00012124679
0.00012110618
0.00012095198
0.00012081625
0.0001206659
0.00012053452
0.00012038848
0.00012026016
0.00012011951
0.00011999277
0.00011985829
0.00011973249
0.0001196038
0.00011947947
0.00011935553
0.00011923309
0.00011911377
0.00011899246
0.00011887833
0.00011875783
0.000118648
0.00011852966
0.00011842253
0.00011830707
0.0001182021
0.00011809029
0.00011798543
0.00011787923
0.00011777529
0.00011766654
0.00011758056
0.00011745189
0.00011737504
0.00011725783
0.00011729793
0.00011686856
0.0001488914
0.0001471283
0.00014558637
0.00014422038
0.00014299469
0.00014188641
0.00014087373
0.00013994494
0.00013908456
0.0001382874
0.00013754089
0.00013684416
0.00013618574
0.00013556802
0.00013497962
0.00013442563
0.00013389414
0.00013339258
0.00013290819
0.00013245049
0.00013200572
0.00013158521
0.00013117421
0.00013078561
0.00013040374
0.00013004278
0.00012968632
0.00012934949
0.00012901538
0.00012869978
0.00012838549
0.0001280887
0.00012779211
0.00012751208
0.00012723138
0.00012696635
0.0001267
0.00012644851
0.00012619509
0.00012595594
0.00012571419
0.00012548638
0.00012525517
0.00012503782
0.00012481621
0.00012460845
0.00012439576
0.00012419667
0.00012399244
0.00012380108
0.00012360499
0.00012342052
0.00012323217
0.00012305406
0.0001228728
0.00012270088
0.00012252585
0.0001223602
0.00012219049
0.00012203111
0.00012186617
0.00012171267
0.00012155247
0.00012140399
0.00012124892
0.00012110441
0.00012095494
0.00012081354
0.0001206697
0.00012053124
0.00012039239
0.00012025735
0.00012012238
0.00011999141
0.00011985956
0.00011973253
0.00011960414
0.00011947989
0.00011935586
0.00011923349
0.00011911382
0.00011899352
0.00011887767
0.00011875906
0.00011864818
0.00011852904
0.0001184251
0.00011830394
0.00011820739
0.00011808362
0.00011799537
0.00011786784
0.00011778652
0.00011766202
0.00011757331
0.00011746747
0.00011738088
0.00011727417
0.00011709918
0.00011711172
0.00014889137
0.00014712834
0.00014558632
0.00014422045
0.0001429946
0.0001418865
0.00014087361
0.00013994504
0.00013908442
0.00013828752
0.00013754072
0.00013684428
0.00013618556
0.00013556813
0.00013497944
0.00013442572
0.00013389394
0.00013339267
0.00013290797
0.00013245061
0.00013200543
0.00013158541
0.00013117381
0.00013078596
0.00013040317
0.00013004336
0.0001296855
0.00012935038
0.00012901426
0.00012870104
0.00012838405
0.00012809039
0.00012779033
0.0001275142
0.00012722926
0.00012696892
0.00012669757
0.00012645145
0.00012619245
0.00012595913
0.00012571147
0.00012548967
0.00012525251
0.00012504109
0.00012481364
0.00012461172
0.00012439317
0.00012420011
0.00012398959
0.00012380494
0.00012360164
0.00012342494
0.00012322831
0.00012305888
0.00012286875
0.00012270563
0.00012252217
0.00012236427
0.00012218771
0.00012203416
0.00012186439
0.00012171486
0.00012155126
0.00012140596
0.00012124754
0.00012110691
0.00012095274
0.00012081697
0.00012066665
0.00012053524
0.00012038923
0.00012026088
0.00012012025
0.00011999349
0.00011985902
0.00011973321
0.00011960452
0.00011948019
0.00011935625
0.0001192338
0.00011911449
0.00011899317
0.00011887905
0.00011875855
0.00011864872
0.00011853037
0.00011842326
0.00011830778
0.00011820283
0.000118091
0.00011798615
0.00011787993
0.00011777601
0.00011766724
0.00011758127
0.0001174526
0.00011737576
0.00011725854
0.00011729864
0.00011686929
0.0001488914
0.00014712829
0.00014558637
0.00014422037
0.00014299468
0.0001418864
0.00014087372
0.00013994491
0.00013908453
0.00013828736
0.00013754085
0.0001368441
0.00013618567
0.00013556794
0.00013497954
0.00013442552
0.00013389403
0.00013339245
0.00013290806
0.00013245035
0.00013200557
0.00013158506
0.00013117406
0.00013078546
0.00013040361
0.00013004264
0.00012968622
0.00012934938
0.00012901534
0.00012869974
0.00012838553
0.00012808874
0.00012779224
0.00012751222
0.00012723163
0.00012696662
0.00012670035
0.0001264489
0.00012619556
0.00012595645
0.00012571476
0.000125487
0.00012525583
0.00012503852
0.00012481693
0.00012460921
0.00012439652
0.00012419747
0.00012399324
0.0001238019
0.0001236058
0.00012342135
0.00012323299
0.00012305489
0.00012287362
0.00012270171
0.00012252667
0.00012236102
0.00012219131
0.00012203192
0.00012186698
0.00012171348
0.00012155327
0.00012140479
0.00012124972
0.0001211052
0.00012095573
0.00012081433
0.00012067049
0.00012053202
0.00012039317
0.00012025813
0.00012012316
0.00011999219
0.00011986034
0.0001197333
0.00011960491
0.00011948066
0.00011935663
0.00011923425
0.00011911458
0.00011899428
0.00011887843
0.00011875982
0.00011864894
0.0001185298
0.00011842586
0.0001183047
0.00011820815
0.00011808437
0.00011799613
0.00011786859
0.00011778728
0.00011766278
0.00011757406
0.00011746822
0.00011738163
0.00011727491
0.00011709993
0.00011711247
0.0001488914
0.00014712829
0.00014558637
0.00014422037
0.00014299468
0.00014188639
0.0001408737
0.0001399449
0.00013908451
0.00013828734
0.00013754081
0.00013684407
0.00013618563
0.00013556789
0.00013497948
0.00013442546
0.00013389395
0.00013339238
0.00013290797
0.00013245026
0.00013200547
0.00013158497
0.00013117396
0.00013078537
0.00013040351
0.00013004256
0.00012968613
0.00012934932
0.00012901527
0.00012869971
0.0001283855
0.00012808877
0.00012779229
0.0001275123
0.00012723174
0.00012696677
0.00012670056
0.00012644911
0.00012619585
0.00012595672
0.00012571512
0.00012548731
0.00012525624
0.00012503888
0.00012481738
0.0001246096
0.000124397
0.00012419788
0.00012399373
0.00012380232
0.00012360631
0.00012342178
0.0001232335
0.00012305531
0.00012287413
0.00012270214
0.00012252716
0.00012236145
0.00012219179
0.00012203237
0.00012186745
0.00012171393
0.00012155373
0.00012140524
0.00012125018
0.00012110565
0.00012095618
0.00012081477
0.00012067094
0.00012053246
0.00012039362
0.00012025857
0.0001201236
0.00011999262
0.00011986077
0.00011973374
0.00011960534
0.0001194811
0.00011935706
0.00011923469
0.00011911501
0.00011899472
0.00011887886
0.00011876026
0.00011864937
0.00011853023
0.00011842628
0.00011830513
0.00011820858
0.0001180848
0.00011799655
0.00011786901
0.0001177877
0.0001176632
0.00011757448
0.00011746865
0.00011738205
0.00011727535
0.00011710035
0.0001171129
0.00014889137
0.00014712834
0.00014558631
0.00014422044
0.00014299459
0.00014188648
0.00014087358
0.000139945
0.00013908436
0.00013828745
0.00013754064
0.00013684417
0.00013618543
0.00013556799
0.00013497927
0.00013442554
0.00013389373
0.00013339244
0.00013290772
0.00013245034
0.00013200515
0.00013158512
0.00013117351
0.00013078566
0.00013040287
0.00013004308
0.00012968524
0.00012935016
0.0001290141
0.00012870093
0.00012838402
0.00012809042
0.00012779047
0.00012751443
0.0001272296
0.00012696936
0.00012669813
0.00012645212
0.00012619323
0.00012596001
0.00012571245
0.00012549073
0.00012525364
0.00012504229
0.00012481489
0.00012461302
0.0001243945
0.00012420147
0.00012399097
0.00012380633
0.00012360304
0.00012342635
0.00012322972
0.00012306029
0.00012287016
0.00012270704
0.00012252357
0.00012236567
0.0001221891
0.00012203555
0.00012186578
0.00012171624
0.00012155264
0.00012140733
0.00012124891
0.00012110827
0.00012095409
0.00012081833
0.00012066799
0.00012053658
0.00012039057
0.00012026222
0.00012012158
0.00011999482
0.00011986034
0.00011973453
0.00011960584
0.0001194815
0.00011935757
0.00011923511
0.0001191158
0.00011899448
0.00011888036
0.00011875985
0.00011865002
0.00011853166
0.00011842455
0.00011830907
0.00011820412
0.00011809229
0.00011798744
0.00011788122
0.0001177773
0.00011766853
0.00011758256
0.00011745388
0.00011737704
0.00011725982
0.00011729992
0.00011687057
0.0001488914
0.00014712829
0.00014558637
0.00014422037
0.00014299467
0.00014188638
0.00014087368
0.00013994487
0.00013908447
0.00013828729
0.00013754075
0.00013684399
0.00013618553
0.00013556778
0.00013497934
0.00013442531
0.00013389378
0.00013339219
0.00013290777
0.00013245004
0.00013200524
0.00013158472
0.0001311737
0.0001307851
0.00013040324
0.00013004231
0.00012968588
0.00012934912
0.00012901507
0.0001286996
0.0001283854
0.00012808878
0.00012779231
0.00012751248
0.00012723193
0.00012696712
0.00012670092
0.00012644965
0.00012619639
0.00012595743
0.00012571582
0.00012548817
0.00012525706
0.00012503984
0.00012481829
0.00012461064
0.00012439797
0.00012419896
0.00012399474
0.00012380343
0.00012360732
0.0001234229
0.00012323451
0.00012305643
0.00012287514
0.00012270325
0.00012252818
0.00012236254
0.00012219281
0.00012203343
0.00012186847
0.00012171497
0.00012155475
0.00012140627
0.00012125119
0.00012110667
0.00012095718
0.00012081578
0.00012067193
0.00012053347
0.0001203946
0.00012025957
0.00012012459
0.00011999361
0.00011986176
0.00011973472
0.00011960633
0.00011948207
0.00011935804
0.00011923566
0.00011911599
0.00011899568
0.00011887984
0.00011876122
0.00011865034
0.00011853119
0.00011842725
0.00011830609
0.00011820954
0.00011808576
0.00011799752
0.00011786998
0.00011778866
0.00011766416
0.00011757545
0.0001174696
0.00011738302
0.0001172763
0.00011710132
0.00011711385
0.00014889137
0.00014712834
0.00014558631
0.00014422043
0.00014299458
0.00014188647
0.00014087356
0.00013994497
0.00013908431
0.00013828739
0.00013754056
0.00013684408
0.00013618532
0.00013556786
0.00013497912
0.00013442537
0.00013389354
0.00013339222
0.00013290748
0.00013245008
0.00013200487
0.00013158482
0.0001311732
0.00013078535
0.00013040256
0.00013004277
0.00012968495
0.00012934989
0.00012901386
0.00012870074
0.00012838389
0.00012809036
0.00012779051
0.00012751454
0.00012722984
0.00012696968
0.00012669858
0.00012645265
0.00012619389
0.00012596074
0.00012571329
0.00012549161
0.00012525462
0.00012504329
0.00012481597
0.0001246141
0.00012439564
0.0001242026
0.00012399214
0.00012380748
0.00012360423
0.0001234275
0.0001232309
0.00012306144
0.00012287133
0.00012270818
0.00012252473
0.0001223668
0.00012219024
0.00012203667
0.0001218669
0.00012171735
0.00012155375
0.00012140843
0.00012125
0.00012110936
0.00012095518
0.0001208194
0.00012066908
0.00012053765
0.00012039164
0.00012026328
0.00012012265
0.00011999588
0.0001198614
0.00011973559
0.0001196069
0.00011948255
0.00011935862
0.00011923616
0.00011911685
0.00011899552
0.0001188814
0.00011876089
0.00011865106
0.0001185327
0.00011842559
0.0001183101
0.00011820516
0.00011809332
0.00011798847
0.00011788224
0.00011777833
0.00011766955
0.00011758358
0.00011745491
0.00011737807
0.00011726084
0.00011730095
0.0001168716
0.0001488914
0.00014712829
0.00014558637
0.00014422036
0.00014299466
0.00014188636
0.00014087365
0.00013994482
0.00013908442
0.00013828722
0.00013754067
0.00013684388
0.00013618541
0.00013556763
0.00013497918
0.00013442512
0.00013389357
0.00013339194
0.0001329075
0.00013244974
0.00013200492
0.00013158437
0.00013117335
0.00013078472
0.00013040288
0.00013004192
0.00012968554
0.00012934876
0.00012901479
0.00012869932
0.00012838524
0.00012808865
0.00012779233
0.00012751256
0.00012723217
0.00012696745
0.0001267014
0.00012645025
0.0001261971
0.00012595827
0.00012571674
0.0001254892
0.00012525814
0.000125041
0.00012481948
0.00012461188
0.00012439923
0.00012420025
0.00012399602
0.00012380473
0.00012360861
0.0001234242
0.0001232358
0.00012305772
0.00012287642
0.00012270452
0.00012252944
0.00012236379
0.00012219406
0.00012203467
0.0001218697
0.00012171619
0.00012155597
0.00012140748
0.0001212524
0.00012110787
0.00012095838
0.00012081698
0.00012067313
0.00012053466
0.00012039579
0.00012026075
0.00012012576
0.00011999479
0.00011986293
0.00011973589
0.00011960749
0.00011948324
0.0001193592
0.00011923682
0.00011911715
0.00011899684
0.00011888099
0.00011876237
0.00011865149
0.00011853234
0.0001184284
0.00011830723
0.00011821068
0.0001180869
0.00011799865
0.00011787111
0.0001177898
0.0001176653
0.00011757658
0.00011747074