/*--------------------------------*- C++ -*----------------------------------*\
| =========                 |                                                 |
| \\      /  F ield         | OpenFOAM: The Open Source CFD Toolbox           |
|  \\    /   O peration     | Version:  2406                                  |
|   \\  /    A nd           | Website:  www.openfoam.com                      |
|    \\/     M anipulation  |                                                 |
\*---------------------------------------------------------------------------*/
FoamFile
{
    version     2.0;
    format      ascii;
    arch        "LSB;label=32;scalar=64";
    class       volScalarField;
    location    "1000";
    object      omega;
}
// * * * * * * * * * * * * * * * * * * * * * * * * * * * * * * * * * * * * * //

dimensions      [0 0 -1 0 0 0 0];

internalField   nonuniform List<scalar> 
16045
(
367.89
320.04481
283.08095
253.69507
229.79194
209.97536
193.28824
179.04378
166.74834
156.02449
146.59529
138.23432
130.77715
124.07737
118.03415
112.54601
107.55073
102.97305
98.775841
94.899411
91.323935
87.998905
84.917202
82.033456
79.350438
76.825251
74.4688
72.238823
70.153255
68.169155
66.310801
64.533589
62.867725
61.266179
59.76485
58.313671
56.954124
55.632597
54.396132
53.18713
52.058234
50.947476
49.913179
48.88866
47.938039
46.989594
46.113383
45.232346
44.422639
43.601577
42.851586
42.084084
41.387952
40.668445
40.02109
39.344725
38.741719
38.104241
37.541708
36.939373
36.413908
35.843405
35.352002
34.810391
34.35039
33.835053
33.404092
32.912686
32.508659
32.039082
31.660109
31.210468
30.854864
30.42345
30.089702
29.674966
29.361712
28.962247
28.668259
28.282784
28.006952
27.634296
27.375613
27.014705
26.772259
26.422117
26.195078
25.854796
25.642411
25.311154
25.112735
24.789734
24.604652
24.289193
24.116876
23.808295
23.648219
23.345902
23.197586
22.833735
367.89
320.04477
283.08086
253.69493
229.79176
209.97514
193.28799
179.0435
166.74803
156.02416
146.59493
138.23394
130.77676
124.07697
118.03374
112.54559
107.5503
102.97262
98.775411
94.898979
91.323505
87.998476
84.916778
82.033037
79.350028
76.82485
74.46841
72.238445
70.152892
68.168807
66.310471
64.533276
62.867431
61.265904
59.764595
58.313437
56.953911
55.632405
54.39596
53.186978
52.058101
50.947362
49.913084
48.888582
47.937976
46.989546
46.11335
45.232325
44.42263
43.601579
42.851598
42.084105
41.387981
40.668481
40.021132
39.344772
38.741771
38.104297
37.541768
36.939436
36.413974
35.843473
35.352072
34.810463
34.350463
33.835128
33.404167
32.912762
32.508736
32.039159
31.660186
31.210545
30.854942
30.423527
30.08978
29.675043
29.361789
28.962324
28.668336
28.28286
28.007027
27.634371
27.375688
27.01478
26.772334
26.422191
26.195152
25.854869
25.642484
25.311227
25.112807
24.789805
24.604724
24.289263
24.116947
23.808365
23.648289
23.345971
23.197655
22.833803
367.89
320.04476
283.08084
253.6949
229.79171
209.97509
193.28792
179.04342
166.74795
156.02408
146.59485
138.23386
130.77667
124.07688
118.03365
112.5455
107.55021
102.97253
98.775326
94.898899
91.32343
87.998408
84.916718
82.032987
79.349989
76.824822
74.468396
72.238445
70.152908
68.168839
66.310519
64.533342
62.867514
61.266004
59.764713
58.31357
56.954061
55.63257
54.396139
53.187171
52.058306
50.947577
49.913308
48.888814
47.938216
46.989791
46.113599
45.232578
44.422885
43.601835
42.851854
42.084361
41.388235
40.668734
40.021383
39.34502
38.742016
38.104539
37.542007
36.939672
36.414206
35.843701
35.352297
34.810685
34.350682
33.835343
33.404379
32.91297
32.508941
32.039361
31.660386
31.210742
30.855136
30.423718
30.089968
29.675228
29.361973
28.962505
28.668515
28.283036
28.007202
27.634543
27.375858
27.014948
26.7725
26.422354
26.195314
25.855029
25.642643
25.311384
25.112963
24.789959
24.604876
24.289414
24.117096
23.808513
23.648436
23.346116
23.197799
22.833945
367.89
320.04475
283.08082
253.69487
229.79166
209.97501
193.28783
179.04331
166.74783
156.02394
146.59469
138.23369
130.77649
124.07669
118.03344
112.54528
107.54999
102.97231
98.775098
94.898671
91.323204
87.998186
84.916502
82.032779
79.349792
76.824639
74.468228
72.238294
70.152776
68.168727
66.310429
64.533274
62.86747
61.265985
59.764717
58.3136
56.954114
55.632646
54.396237
53.18729
52.058445
50.947735
49.913483
48.889004
47.938419
46.990006
46.113825
45.232813
44.423128
43.602084
42.852109
42.084619
41.388497
40.668998
40.021649
39.345287
38.742284
38.104807
37.542274
36.939938
36.414471
35.843965
35.352559
34.810944
34.35094
33.835598
33.404633
32.913222
32.509191
32.039608
31.660631
31.210985
30.855376
30.423956
30.090204
29.675462
29.362205
28.962734
28.668742
28.283262
28.007425
27.634765
27.376078
27.015165
26.772716
26.422568
26.195527
25.855239
25.642851
25.31159
25.113168
24.790162
24.605078
24.289613
24.117295
23.808709
23.648631
23.346309
23.197991
22.834135
367.89
320.04475
283.08081
253.69484
229.79163
209.97496
193.28776
179.04324
166.74774
156.02384
146.59458
138.23357
130.77636
124.07655
118.03331
112.54514
107.54985
102.97217
98.774962
94.89854
91.323082
87.998075
84.916403
82.032695
79.349726
76.824592
74.468204
72.238294
70.152801
68.168779
66.31051
64.533384
62.867611
61.266155
59.764917
58.313828
56.954371
55.63293
54.396546
53.187622
52.058798
50.948107
49.913872
48.889408
47.938835
46.990432
46.114258
45.233253
44.423572
43.60253
42.852556
42.085066
41.388943
40.669441
40.022089
39.345723
38.742716
38.105234
37.542696
36.940354
36.414882
35.84437
35.352958
34.811338
34.351328
33.83598
33.40501
32.913593
32.509557
32.039969
31.660987
31.211335
30.855722
30.424297
30.090541
29.675794
29.362533
28.963057
28.669062
28.283577
28.007737
27.635072
27.376382
27.015466
26.773013
26.422862
26.195817
25.855526
25.643136
25.311871
25.113447
24.790437
24.605351
24.289883
24.117562
23.808974
23.648894
23.346568
23.198249
22.834388
367.89
320.04475
283.0808
253.69482
229.79159
209.97491
193.2877
179.04316
166.74765
156.02373
146.59446
138.23343
130.77621
124.0764
118.03314
112.54497
107.54968
102.97199
98.774785
94.898366
91.322914
87.997915
84.916256
82.032563
79.349612
76.824499
74.468133
72.238249
70.152785
68.168793
66.310557
64.533464
62.867724
61.266303
59.7651
58.314044
56.95462
55.633209
54.396855
53.187959
52.05916
50.948491
49.914275
48.889828
47.93927
46.99088
46.114716
45.233717
44.424042
43.603004
42.853032
42.085543
41.389419
40.669916
40.022561
39.346192
38.743181
38.105695
37.543153
36.940806
36.415329
35.844811
35.353395
34.811769
34.351754
33.836401
33.405426
32.914003
32.509962
32.040369
31.661383
31.211725
30.856109
30.424679
30.090919
29.676167
29.362902
28.963422
28.669423
28.283934
28.008091
27.635422
27.376729
27.015808
26.773353
26.423197
26.196151
25.855856
25.643463
25.312194
25.113768
24.790754
24.605666
24.290195
24.117872
23.80928
23.649198
23.346869
23.198548
22.834684
367.89
320.04474
283.08079
253.6948
229.79156
209.97487
193.28764
179.04309
166.74756
156.02362
146.59434
138.2333
130.77607
124.07624
118.03298
112.54481
107.54951
102.97182
98.77462
94.898206
91.322764
87.997776
84.916134
82.03246
79.349532
76.824445
74.46811
72.238257
70.152829
68.168875
66.310678
64.533626
62.867929
61.266549
59.765388
58.314374
56.954989
55.633616
54.397297
53.188432
52.059663
50.94902
49.914827
48.8904
47.939858
46.991481
46.115327
45.234336
44.424665
43.60363
42.853659
42.086169
41.390042
40.670535
40.023176
39.346801
38.743784
38.10629
37.543741
36.941386
36.415902
35.845376
35.353952
34.812318
34.352296
33.836934
33.405952
32.914521
32.510474
32.040872
31.66188
31.212215
30.856593
30.425155
30.09139
29.676631
29.363361
28.963875
28.669871
28.284375
28.008528
27.635853
27.377156
27.016229
26.77377
26.423609
26.196559
25.856259
25.643863
25.312589
25.114159
24.791141
24.60605
24.290574
24.118249
23.809652
23.649567
23.347234
23.19891
22.83504
367.89
320.04474
283.08078
253.69478
229.79152
209.97482
193.28758
179.04301
166.74746
156.02351
146.59422
138.23316
130.77591
124.07608
118.03281
112.54462
107.54932
102.97163
98.774431
94.898022
91.322588
87.997613
84.915987
82.032333
79.349431
76.824371
74.468069
72.238252
70.152864
68.168951
66.3108
64.533794
62.868144
61.266811
59.765698
58.31473
56.95539
55.634059
54.39778
53.188952
52.060215
50.949601
49.915434
48.891027
47.940503
46.99214
46.115997
45.235013
44.425347
43.604314
42.854343
42.086851
41.390721
40.671209
40.023844
39.347462
38.744438
38.106936
37.544379
36.942015
36.416523
35.845988
35.354556
34.812912
34.352882
33.837512
33.406522
32.915083
32.511028
32.041419
31.66242
31.212747
30.857119
30.425674
30.091903
29.677137
29.363862
28.964368
28.67036
28.284858
28.009006
27.636325
27.377624
27.016691
26.774228
26.424061
26.197008
25.856702
25.644302
25.313023
25.11459
24.791567
24.606473
24.290992
24.118664
23.810062
23.649975
23.347637
23.199311
22.835435
367.89
320.04474
283.08076
253.69475
229.79149
209.97477
193.28752
179.04292
166.74736
156.02339
146.59408
138.233
130.77575
124.07589
118.03261
112.54442
107.54911
102.97142
98.774222
94.897819
91.322395
87.997434
84.915827
82.032196
79.349321
76.824295
74.46803
72.238255
70.152913
68.169049
66.31095
64.533997
62.868403
61.267127
59.766069
58.315156
56.955868
55.634587
54.398354
53.189569
52.06087
50.950291
49.916152
48.891771
47.941267
46.992919
46.116788
45.235813
44.426152
43.60512
42.855149
42.087653
41.391519
40.672001
40.024629
39.348238
38.745205
38.107693
37.545127
36.942752
36.41725
35.846704
35.355262
34.813608
34.353568
33.838187
33.407188
32.915738
32.511675
32.042056
31.663049
31.213367
30.857731
30.426277
30.092499
29.677725
29.364443
28.964941
28.670927
28.285417
28.00956
27.636871
27.378165
27.017225
26.774757
26.424584
26.197525
25.857213
25.644809
25.313524
25.115087
24.792057
24.60696
24.291473
24.119141
23.810534
23.650444
23.3481
23.199771
22.835888
367.89
320.04472
283.08075
253.69473
229.79145
209.97472
193.28744
179.04283
166.74725
156.02326
146.59393
138.23283
130.77556
124.07569
118.0324
112.54419
107.54887
102.97118
98.773982
94.897583
91.322169
87.997221
84.915634
82.032026
79.349183
76.824191
74.467969
72.23824
70.152949
68.16914
66.311099
64.534208
62.868676
61.267463
59.766469
58.315617
56.956389
55.635165
54.398985
53.190247
52.061592
50.95105
49.916944
48.89259
47.942107
46.993777
46.117657
45.23669
44.427033
43.606003
42.856029
42.08853
41.39239
40.672863
40.025482
39.349081
38.746038
38.108514
37.545936
36.943549
36.418035
35.847477
35.356024
34.814357
34.354307
33.838914
33.407905
32.916444
32.512372
32.042741
31.663725
31.214033
30.858389
30.426925
30.09314
29.678356
29.365068
28.965558
28.671537
28.286019
28.010156
27.637459
27.378747
27.0178
26.775327
26.425146
26.198083
25.857764
25.645356
25.314063
25.115623
24.792586
24.607485
24.291992
24.119657
23.811043
23.65095
23.348599
23.200268
22.836378
367.89
320.04472
283.08073
253.69471
229.79142
209.97466
193.28737
179.04273
166.74712
156.02311
146.59375
138.23264
130.77534
124.07546
118.03215
112.54393
107.5486
102.9709
98.773704
94.897307
91.321901
87.996967
84.915401
82.03182
79.34901
76.824057
74.46788
72.238202
70.152969
68.169221
66.311247
64.534425
62.868966
61.267826
59.766905
58.316124
56.956965
55.635806
54.399686
53.191004
52.062398
50.9519
49.91783
48.893506
47.943048
46.994736
46.11863
45.237672
44.428019
43.60699
42.857014
42.089509
41.393362
40.673826
40.026435
39.350021
38.746966
38.109428
37.546839
36.944437
36.418911
35.848338
35.356873
34.815192
34.35513
33.839724
33.408704
32.91723
32.513147
32.043505
31.664479
31.214775
30.859122
30.427648
30.093854
29.67906
29.365764
28.966244
28.672216
28.286688
28.010819
27.638113
27.379395
27.018439
26.775961
26.425771
26.198703
25.858376
25.645963
25.314663
25.116218
24.793174
24.608069
24.292568
24.120229
23.811608
23.651511
23.349154
23.200819
22.836921
367.89
320.04472
283.08072
253.69469
229.79137
209.9746
193.28728
179.04262
166.74698
156.02295
146.59356
138.23242
130.7751
124.07519
118.03186
112.54363
107.54829
102.97058
98.773376
94.89698
91.321582
87.996661
84.915115
82.031561
79.348786
76.823875
74.467747
72.238125
70.152955
68.169277
66.311378
64.534633
62.869256
61.268198
59.76736
58.31666
56.95758
55.636495
54.400444
53.191825
52.063274
50.952824
49.918795
48.894506
47.944074
46.995783
46.11969
45.23874
44.429091
43.608061
42.858082
42.09057
41.394413
40.674866
40.027463
39.351035
38.747966
38.110413
37.547808
36.945391
36.41985
35.849261
35.357782
34.816086
34.356011
33.84059
33.409557
32.91807
32.513975
32.04432
31.665283
31.215567
30.859904
30.428418
30.094615
29.67981
29.366505
28.966975
28.672939
28.287401
28.011525
27.638809
27.380085
27.01912
26.776635
26.426437
26.199364
25.859028
25.64661
25.315301
25.116851
24.793799
24.60869
24.293181
24.120838
23.812209
23.652109
23.349745
23.201406
22.837499
367.88998
320.04471
283.08071
253.69465
229.79132
209.97452
193.28717
179.04249
166.74683
156.02276
146.59335
138.23217
130.77483
124.07489
118.03154
112.54328
107.54793
102.97021
98.772992
94.896593
91.321201
87.99629
84.914765
82.031237
79.348498
76.82363
74.467558
72.237996
70.152896
68.169294
66.311479
64.534822
62.869537
61.268573
59.767829
58.317222
56.958231
55.637231
54.401259
53.192712
52.064224
50.95383
49.919847
48.895595
47.945193
46.996923
46.120846
45.239905
44.430259
43.609228
42.859244
42.091723
41.395556
40.675995
40.028578
39.352135
38.74905
38.11148
37.548859
36.946424
36.420867
35.850261
35.358767
34.817054
34.356964
33.841527
33.410481
32.918978
32.514871
32.045201
31.666153
31.216424
30.86075
30.429251
30.095438
29.680621
29.367308
28.967766
28.673722
28.288173
28.012289
27.639563
27.380832
27.019857
26.777366
26.427158
26.200078
25.859733
25.64731
25.315992
25.117537
24.794477
24.609362
24.293845
24.121498
23.812861
23.652756
23.350384
23.202042
22.838126
367.88998
320.04469
283.08069
253.69461
229.79126
209.97444
193.28706
179.04234
166.74665
156.02255
146.5931
138.23189
130.77451
124.07455
118.03116
112.54288
107.5475
102.96976
98.77254
94.896135
91.320744
87.995842
84.914335
82.030833
79.348131
76.823309
74.467293
72.237798
70.152774
68.169256
66.311534
64.534976
62.869795
61.268937
59.768301
58.317799
56.958911
55.638008
54.402124
53.193659
52.065242
50.95491
49.920978
48.896769
47.946399
46.998153
46.122091
45.241159
44.431516
43.610482
42.860491
42.092959
41.39678
40.677204
40.029771
39.353309
38.750206
38.112617
37.549978
36.947523
36.421948
35.851323
35.359812
34.81808
34.357975
33.84252
33.411459
32.91994
32.51582
32.046134
31.667074
31.21733
30.861645
30.430132
30.096309
29.681479
29.368156
28.968601
28.674549
28.288989
28.013096
27.640359
27.38162
27.020635
26.778137
26.427919
26.200833
25.860478
25.648048
25.316721
25.11826
24.795191
24.610071
24.294545
24.122193
23.813548
23.653438
23.351058
23.202711
22.838785
367.88998
320.04469
283.08067
253.69458
229.7912
209.97435
193.28694
179.04218
166.74645
156.02231
146.59282
138.23157
130.77416
124.07415
118.03073
112.54242
107.54701
102.96925
98.77201
94.895593
91.320199
87.995302
84.913811
82.030332
79.347668
76.822892
74.466936
72.23751
70.152571
68.169145
66.311526
64.535079
62.870015
61.269277
59.768763
58.318382
56.95961
55.638818
54.403037
53.194664
52.066328
50.956067
49.922192
48.89803
47.947695
46.999475
46.123429
45.242505
44.432864
43.611826
42.861826
42.094282
41.398088
40.678494
40.031043
39.35456
38.751438
38.113827
37.551168
36.948692
36.423098
35.852452
35.360922
34.819171
34.359048
33.843575
33.412498
32.920961
32.516827
32.047125
31.668051
31.218291
30.862594
30.431067
30.097233
29.682389
29.369056
28.969489
28.675427
28.289854
28.013953
27.641204
27.382458
27.021461
26.778956
26.428727
26.201634
25.861269
25.648832
25.317496
25.119029
24.79595
24.610825
24.29529
24.122932
23.814278
23.654164
23.351775
23.203424
22.839487
367.88998
320.04468
283.08064
253.69453
229.79113
209.97424
193.2868
179.042
166.74623
156.02204
146.5925
138.23121
130.77375
124.0737
118.03024
112.54189
107.54645
102.96865
98.77139
94.894955
91.319553
87.994655
84.913175
82.029718
79.347088
76.822359
74.466466
72.237114
70.152264
68.168939
66.311435
64.53511
62.870179
61.269577
59.769202
58.318959
56.96032
55.639655
54.40399
53.195723
52.067479
50.957297
49.923487
48.899377
47.949079
47.000887
46.124857
45.243942
44.434301
43.613256
42.863246
42.095687
41.399475
40.679861
40.032388
39.355883
38.752738
38.115103
37.552423
36.949923
36.424308
35.853639
35.362089
34.820316
34.360176
33.844682
33.413589
32.922033
32.517883
32.048163
31.669075
31.219299
30.863589
30.432047
30.0982
29.683342
29.369998
28.970417
28.676345
28.29076
28.014849
27.642088
27.383333
27.022324
26.779811
26.429571
26.202471
25.862094
25.649652
25.318304
25.119831
24.796742
24.611611
24.296066
24.123703
23.815039
23.65492
23.352521
23.204166
22.840218
367.88998
320.04467
283.08061
253.69448
229.79105
209.97413
193.28664
179.0418
166.74598
156.02174
146.59216
138.23081
130.77329
124.07319
118.02968
112.54128
107.5458
102.96796
98.770668
94.894208
91.318789
87.993884
84.91241
82.02897
79.346372
76.821689
74.465858
72.236585
70.151831
68.168616
66.311237
64.53505
62.870266
61.26982
59.769602
58.319517
56.961031
55.640511
54.404979
53.196834
52.068694
50.958601
49.924862
48.900809
47.950553
47.00239
46.126377
45.245469
44.435826
43.614774
42.864749
42.097173
41.400941
40.681303
40.033807
39.357276
38.754107
38.116445
37.55374
36.951215
36.425577
35.854883
35.363313
34.821517
34.361357
33.845841
33.41473
32.923154
32.518988
32.04925
31.670148
31.220354
30.864631
30.433072
30.099213
29.68434
29.370985
28.97139
28.677308
28.291709
28.015789
27.643015
27.384251
27.02323
26.780709
26.430457
26.203349
25.862961
25.650512
25.319153
25.120674
24.797574
24.612437
24.296882
24.124514
23.81584
23.655716
23.353308
23.204948
22.840988
367.88997
320.04466
283.08058
253.69442
229.79096
209.97399
193.28647
179.04158
166.7457
156.0214
146.59176
138.23035
130.77277
124.07261
118.02905
112.54059
107.54505
102.96717
98.769835
94.893338
91.317894
87.992973
84.911496
82.028066
79.345496
76.820856
74.465089
72.235895
70.151243
68.168147
66.310907
64.534872
62.870256
61.269984
59.769947
58.320043
56.961731
55.641379
54.406
53.197992
52.069971
50.959979
49.92632
48.90233
47.952118
47.003985
46.127988
45.247086
44.437439
43.616375
42.866335
42.098737
41.402481
40.682816
40.035293
39.358734
38.755537
38.117847
37.555116
36.952562
36.426899
35.85618
35.364586
34.822766
34.362585
33.847047
33.415917
32.92432
32.520136
32.050379
31.67126
31.221449
30.865711
30.434135
30.100264
29.685375
29.372007
28.972397
28.678304
28.292691
28.016761
27.643973
27.3852
27.024166
26.781636
26.431372
26.204255
25.863856
25.651398
25.320029
25.121542
24.798431
24.613288
24.297721
24.125348
23.816663
23.656534
23.354115
23.20575
22.841778
367.88997
320.04464
283.08055
253.69436
229.79086
209.97385
193.28627
179.04133
166.74539
156.02103
146.59132
138.22984
130.7722
124.07197
118.02833
112.5398
107.54421
102.96627
98.768875
94.892331
91.316852
87.991903
84.910415
82.026985
79.344436
76.819834
74.464128
72.235015
70.15047
68.167502
66.310413
64.534549
62.870119
61.270047
59.770215
58.320519
56.962409
55.64225
54.407046
53.199197
52.07131
50.961432
49.927861
48.903941
47.953776
47.005675
46.129693
45.248793
44.43914
43.618061
42.868
42.100377
41.404094
40.684398
40.036846
39.360254
38.757028
38.119306
37.556546
36.953962
36.428273
35.857525
35.365907
34.824061
34.363858
33.848296
33.417146
32.925527
32.521326
32.051548
31.672413
31.222583
30.86683
30.435237
30.101353
29.686447
29.373067
28.973442
28.679338
28.29371
28.01777
27.644969
27.386186
27.025139
26.7826
26.432324
26.205199
25.864788
25.652323
25.320942
25.122449
24.799327
24.614177
24.2986
24.12622
23.817525
23.657391
23.354962
23.206592
22.842608
367.88996
320.04462
283.08051
253.69429
229.79075
209.9737
193.28607
179.04105
166.74505
156.02062
146.59083
138.22928
130.77156
124.07124
118.02753
112.53892
107.54325
102.96524
98.76778
94.891175
91.315646
87.990656
84.909143
82.025704
79.343165
76.818593
74.462944
72.233913
70.149477
68.166645
66.309721
64.534046
62.869827
61.269981
59.770385
58.320928
56.963052
55.643115
54.408113
53.200446
52.072712
50.962962
49.92949
48.905645
47.95553
47.007461
46.131492
45.250593
44.440928
43.619831
42.869745
42.102091
41.405776
40.686046
40.03846
39.361832
38.758573
38.120816
37.558025
36.955409
36.429691
35.858913
35.36727
34.825396
34.365169
33.849582
33.418411
32.926769
32.522548
32.052749
31.673597
31.223747
30.867979
30.436367
30.102469
29.687546
29.374153
28.974511
28.680395
28.294752
28.0188
27.645984
27.387191
27.02613
26.783582
26.433291
26.206158
25.865734
25.653261
25.321867
25.123366
24.800232
24.615075
24.299486
24.1271
23.818393
23.658253
23.355812
23.207437
22.843439
367.88996
320.0446
283.08047
253.69422
229.79064
209.97353
193.28583
179.04076
166.74468
156.02017
146.5903
138.22866
130.77085
124.07044
118.02664
112.53794
107.54218
102.96408
98.766539
94.889857
91.314262
87.989215
84.907661
82.024196
79.341656
76.817102
74.461502
72.232548
70.148225
68.165537
66.308792
64.533325
62.869343
61.269755
59.770431
58.321251
56.963644
55.643967
54.409199
53.201741
52.074181
50.964576
49.931213
48.90745
47.957387
47.009348
46.133389
45.252487
44.442806
43.621683
42.871566
42.103877
41.407526
40.687756
40.040132
39.363465
38.760169
38.122375
37.55955
36.956899
36.431151
35.860342
35.368671
34.826768
34.366517
33.850904
33.419712
32.928046
32.523806
32.053985
31.674816
31.224946
30.869162
30.437532
30.103619
29.68868
29.375274
28.975616
28.681489
28.29583
28.019868
27.647038
27.388235
27.02716
26.784603
26.4343
26.207159
25.866721
25.654241
25.322835
25.124328
24.801182
24.616019
24.300419
24.128027
23.819309
23.659163
23.356713
23.208332
22.844322
367.88995
320.04458
283.08042
253.69414
229.79051
209.97335
193.28558
179.04043
166.74427
156.01968
146.58972
138.22798
130.77007
124.06956
118.02566
112.53685
107.54099
102.96278
98.765142
94.888366
91.312684
87.98756
84.905947
82.022437
79.339877
76.815328
74.459766
72.230882
70.14667
68.164131
66.307578
64.532342
62.868627
61.269334
59.770322
58.321464
56.964172
55.644797
54.410301
53.203085
52.075724
50.966283
49.933039
48.909363
47.959354
47.011343
46.135391
45.254478
44.444774
43.62362
42.873465
42.105734
41.409341
40.689526
40.041859
39.365148
38.761812
38.123977
37.561116
36.958428
36.432646
35.861803
35.370103
34.828169
34.367893
33.852251
33.421036
32.929344
32.525083
32.055239
31.676051
31.226159
30.870358
30.438708
30.10478
29.689822
29.376402
28.976726
28.682585
28.29691
28.020936
27.64809
27.389276
27.028185
26.785618
26.4353
26.208149
25.867698
25.655208
25.323789
25.125273
24.802114
24.616944
24.30133
24.128931
23.820201
23.660049
23.357585
23.209199
22.845174
367.88994
320.04455
283.08038
253.69405
229.79037
209.97315
193.28531
179.04008
166.74384
156.01915
146.58909
138.22725
130.76923
124.06861
118.02458
112.53565
107.53967
102.96134
98.763582
94.886689
91.310901
87.985676
84.903979
82.020401
79.3378
76.813234
74.457693
72.228867
70.144762
68.162375
66.306028
64.531045
62.86763
61.268675
59.770025
58.321543
56.964621
55.645599
54.41142
53.204485
52.077352
50.968094
49.934983
48.911399
47.961442
47.013457
46.137503
45.256572
44.446837
43.625642
42.875443
42.107662
41.411219
40.691354
40.043639
39.36688
38.763501
38.125621
37.562721
36.959994
36.434179
35.8633
35.371571
34.829606
34.369303
33.853634
33.422395
32.930679
32.526398
32.05653
31.677325
31.227413
30.871596
30.439927
30.105985
29.691009
29.377577
28.977885
28.683732
28.298042
28.022057
27.649196
27.390372
27.029268
26.786691
26.43636
26.209201
25.868737
25.65624
25.324809
25.126286
24.803116
24.617939
24.302315
24.12991
23.821169
23.661011
23.358537
23.210145
22.846107
367.88993
320.04453
283.08032
253.69396
229.79022
209.97294
193.28503
179.03971
166.74337
156.01858
146.58842
138.22646
130.76831
124.06757
118.02341
112.53435
107.53822
102.95975
98.761854
94.884821
91.3089
87.983549
84.90174
82.018064
79.335393
76.810783
74.455241
72.226454
70.142445
68.16021
66.304081
64.529376
62.866298
61.26773
59.769502
58.321462
56.964975
55.646371
54.412565
53.205956
52.079084
50.970033
49.937065
48.913578
47.96367
47.015703
46.139738
45.258779
44.449001
43.627755
42.877501
42.109662
41.413162
40.693238
40.04547
39.368657
38.765228
38.1273
37.564357
36.961586
36.435733
35.864816
35.373053
34.831053
34.370721
33.855021
33.423756
32.932011
32.527707
32.057814
31.678587
31.228651
30.872816
30.441125
30.107165
29.692169
29.378721
28.97901
28.684843
28.299134
28.023136
27.650258
27.391421
27.030301
26.787713
26.437365
26.210196
25.869717
25.657211
25.325764
25.127233
24.804048
24.618863
24.303225
24.130812
23.822058
23.661893
23.359405
23.211007
22.846954
367.88993
320.0445
283.08027
253.69386
229.79007
209.97271
193.28472
179.03932
166.74288
156.01798
146.5877
138.22561
130.76734
124.06645
118.02215
112.53293
107.53665
102.95802
98.759958
94.882758
91.306675
87.981166
84.899212
82.015403
79.332626
76.807937
74.452362
72.223589
70.139659
68.157569
66.301665
64.527262
62.864564
61.266442
59.768708
58.321191
56.965222
55.647115
54.413749
53.207522
52.08095
50.97213
49.939316
48.915927
47.966063
47.018102
46.142114
45.261111
44.451278
43.629968
42.879647
42.111739
41.415175
40.695187
40.04736
39.370489
38.76701
38.129031
37.566045
36.96323
36.437339
35.866385
35.37459
34.832558
34.372199
33.856469
33.425181
32.93341
32.529085
32.059169
31.679925
31.229968
30.874117
30.442407
30.108433
29.69342
29.379958
28.980231
28.686052
28.300328
28.024319
27.651426
27.392579
27.031445
26.788848
26.438488
26.21131
25.870818
25.658304
25.326846
25.128307
24.805111
24.619919
24.30427
24.131851
23.823085
23.662914
23.360416
23.212012
22.847945
367.88992
320.04447
283.08021
253.69376
229.78991
209.97247
193.2844
179.0389
166.74236
156.01735
146.58694
138.22472
130.7663
124.06526
118.0208
112.53142
107.53496
102.95614
98.757894
94.8805
91.304223
87.978519
84.896382
82.012399
79.329472
76.804661
74.449011
72.220214
70.136335
68.154375
66.298699
64.524622
62.862351
61.264746
59.767593
58.320702
56.965353
55.647842
54.414999
53.209222
52.082994
50.974433
49.941783
48.918489
47.968656
47.020687
46.144657
45.263592
44.453685
43.632293
42.881892
42.113901
41.417258
40.697193
40.049297
39.372357
38.768817
38.130778
37.567739
36.964872
36.438937
35.867937
35.376104
34.834032
34.373638
33.857873
33.426555
32.934752
32.530401
32.060455
31.681188
31.231205
30.875332
30.443599
30.109606
29.69457
29.381091
28.981343
28.687148
28.301404
28.02538
27.652468
27.393608
27.032455
26.789845
26.439468
26.212279
25.871771
25.659247
25.327773
25.129225
24.806013
24.620812
24.305148
24.132721
23.823941
23.663763
23.36125
23.21284
22.848757
367.8899
320.04444
283.08015
253.69365
229.78974
209.97223
193.28408
179.03847
166.74182
156.01668
146.58615
138.22379
130.76522
124.06401
118.01938
112.52981
107.53316
102.95413
98.755671
94.878052
91.301548
87.97561
84.893244
82.009037
79.325908
76.800919
74.44514
72.216268
70.132399
68.150541
66.295088
64.521358
62.859567
61.262562
59.766102
58.319964
56.965368
55.648579
54.416365
53.211118
52.085289
50.977014
49.944533
48.921325
47.971507
47.023504
46.147408
45.266258
44.456259
43.634769
42.884275
42.116191
41.419467
40.699321
40.051355
39.374347
38.770749
38.132654
37.569567
36.966652
36.440677
35.869637
35.37777
34.835663
34.37524
33.859445
33.428101
32.936271
32.531898
32.061928
31.682642
31.232637
30.876749
30.444995
30.110987
29.695933
29.382441
28.982675
28.688468
28.302707
28.026671
27.653743
27.394873
27.033705
26.791086
26.440694
26.213496
25.872975
25.660442
25.328955
25.130399
24.807175
24.621967
24.30629
24.133856
23.825064
23.664879
23.362354
23.213937
22.849838
367.88989
320.04441
283.08008
253.69353
229.78956
209.97199
193.28374
179.03803
166.74127
156.016
146.58533
138.22282
130.76409
124.06271
118.01789
112.52812
107.53126
102.952
98.753302
94.875428
91.298658
87.972443
84.889798
82.005311
79.321917
76.796682
74.440704
72.211688
70.127769
68.145969
66.290722
64.517356
62.856103
61.259801
59.764174
58.318956
56.965284
55.64938
54.417927
53.213312
52.087942
50.979983
49.947673
48.924534
47.974698
47.026627
46.150427
45.269154
44.459023
43.637401
42.88678
42.118574
41.421737
40.701485
40.053425
39.376328
38.772651
38.13448
37.571327
36.96835
36.44232
35.871226
35.379312
34.837158
34.376695
33.860858
33.429479
32.937612
32.533209
32.063206
31.683893
31.233858
30.877946
30.446165
30.112136
29.697056
29.383545
28.983756
28.68953
28.303747
28.027694
27.654745
27.395859
27.034672
26.792039
26.441629
26.214419
25.873879
25.661336
25.329832
25.131266
24.808025
24.622808
24.307115
24.134673
23.825865
23.665672
23.363132
23.214708
22.850594
367.88988
320.04438
283.08001
253.69342
229.78939
209.97173
193.28339
179.03758
166.7407
156.01531
146.58449
138.22183
130.76293
124.06137
118.01636
112.52637
107.52928
102.94978
98.750809
94.872647
91.295575
87.969035
84.886057
82.001224
79.317493
76.791929
74.435663
72.206413
70.122361
68.140552
66.285473
64.512478
62.851828
61.256357
59.761744
58.317668
56.965149
55.650342
54.419824
53.215967
52.091129
50.98351
49.951361
48.928259
47.97837
47.030193
46.153862
45.272443
44.462172
43.640409
42.889662
42.121336
41.424395
40.704044
40.055898
39.378718
38.774972
38.136733
37.573522
36.970488
36.44441
35.873267
35.381312
34.839117
34.378618
33.862744
33.431334
32.939433
32.535003
32.064971
31.685635
31.235574
30.87964
30.447835
30.113787
29.698685
29.385155
28.985344
28.691102
28.305297
28.029229
27.65626
27.39736
27.036154
26.793508
26.44308
26.215858
25.875301
25.662746
25.331225
25.132649
24.809391
24.624163
24.308454
24.136001
23.827177
23.666975
23.364419
23.215986
22.85185
367.88988
320.04434
283.07996
253.69331
229.78921
209.97148
193.28305
179.03714
166.74014
156.01462
146.58366
138.22084
130.76177
124.06002
118.01479
112.52459
107.52725
102.94748
98.74822
94.86974
91.292326
87.965416
84.882047
81.996796
79.312642
76.786651
74.429989
72.200386
70.116087
68.134169
66.279196
64.506564
62.84659
61.25211
59.758757
58.316126
56.96507
55.651647
54.422289
53.219354
52.095134
50.987881
49.955855
48.932713