/*--------------------------------*- C++ -*----------------------------------*\
| =========                 |                                                 |
| \\      /  F ield         | OpenFOAM: The Open Source CFD Toolbox           |
|  \\    /   O peration     | Version:  2406                                  |
|   \\  /    A nd           | Website:  www.openfoam.com                      |
|    \\/     M anipulation  |                                                 |
\*---------------------------------------------------------------------------*/
FoamFile
{
    version     2.0;
    format      ascii;
    arch        "LSB;label=32;scalar=64";
    class       volScalarField;
    location    "1000";
    object      p;
}
// * * * * * * * * * * * * * * * * * * * * * * * * * * * * * * * * * * * * * //

dimensions      [0 2 -2 0 0 0 0];

internalField   nonuniform List<scalar> 
16045
(
1.2755182
1.2715571
1.2639614
1.2532397
1.2396495
1.2231657
1.203702
1.1812269
1.1557397
1.1272323
1.0956874
1.0610929
1.0234489
0.98277015
0.93908793
0.8924543
0.84294646
0.79067096
0.73576713
0.67841088
0.61881716
0.55724257
0.49398629
0.42939042
0.36383831
0.29775196
0.23158705
0.16582691
0.10097418
0.037541373
-0.023960345
-0.083032766
-0.13920321
-0.19203657
-0.24114678
-0.28620698
-0.3269578
-0.36321303
-0.39486298
-0.42187474
-0.44428988
-0.46221936
-0.47583659
-0.48536852
-0.49108585
-0.49329251
-0.49231534
-0.488494
-0.48217199
-0.47368845
-0.46337156
-0.45153302
-0.43846405
-0.42443243
-0.4096809
-0.39442626
-0.37885961
-0.36314688
-0.34743019
-0.3318293
-0.31644348
-0.30135337
-0.286623
-0.27230168
-0.25842589
-0.24502103
-0.23210308
-0.21968
-0.20775319
-0.19631856
-0.18536762
-0.17488838
-0.16486611
-0.15528404
-0.14612389
-0.13736635
-0.12899151
-0.1209791
-0.11330888
-0.10596074
-0.098914954
-0.092152242
-0.085653969
-0.079402096
-0.073379374
-0.067569225
-0.061955929
-0.056524457
-0.05126067
-0.04615114
-0.041183318
-0.036345554
-0.031626752
-0.027018256
-0.022508036
-0.018100674
-0.013756314
-0.0095909291
-0.0052805606
-0.0021385919
1.2787033
1.2757489
1.2690676
1.2590321
1.246039
1.2301248
1.2112063
1.1892499
1.164258
1.1362244
1.105131
1.0709626
1.0337151
0.99339735
0.95003393
0.90366887
0.85437061
0.80223612
0.74739496
0.69001293
0.63029544
0.56849007
0.50488844
0.43982661
0.37368432
0.30688263
0.23987965
0.17316451
0.10724959
0.042660808
-0.02007348
-0.080434771
-0.13792726
-0.19209099
-0.24251408
-0.28884408
-0.33079718
-0.36816516
-0.40081935
-0.4287119
-0.45187369
-0.47040969
-0.48449165
-0.49434922
-0.50025935
-0.50253541
-0.5015159
-0.49755384
-0.49100688
-0.4822287
-0.47156165
-0.45933092
-0.44584013
-0.43136827
-0.41616781
-0.40046395
-0.38445466
-0.36831152
-0.35218095
-0.33618597
-0.32042808
-0.30498936
-0.28993453
-0.27531307
-0.26116111
-0.24750342
-0.234355
-0.22172275
-0.20960676
-0.19800166
-0.18689759
-0.17628123
-0.16613654
-0.15644548
-0.14718855
-0.13834532
-0.12989478
-0.12181572
-0.11408693
-0.10668752
-0.099596952
-0.092795309
-0.086263262
-0.079982281
-0.073934527
-0.068103047
-0.062471612
-0.05702491
-0.051748345
-0.046628259
-0.041651662
-0.036806668
-0.032081659
-0.027467647
-0.022951634
-0.018537758
-0.014182098
-0.010000792
-0.0056286391
-0.002378863
1.2845994
1.2819556
1.2755284
1.2656187
1.2527217
1.2369183
1.2181157
1.1962693
1.1713787
1.1434362
1.1124192
1.078306
1.0410856
1.0007593
0.95734354
0.91087379
0.86140959
0.80903924
0.75388389
0.69610185
0.63589217
0.57349789
0.50920822
0.4433596
0.37633526
0.30856329
0.24051263
0.17268711
0.10561748
0.039851411
-0.02405828
-0.08556673
-0.14415109
-0.19932468
-0.25065078
-0.29775505
-0.34033599
-0.37817274
-0.41112973
-0.43915803
-0.46229323
-0.48065025
-0.4944153
-0.50383586
-0.50920914
-0.51086988
-0.50917816
-0.50450776
-0.49723557
-0.48773237
-0.47635524
-0.46344145
-0.44930414
-0.43422925
-0.41847398
-0.40226618
-0.3858048
-0.36926091
-0.35277936
-0.33648071
-0.32046342
-0.30480612
-0.28956991
-0.2748005
-0.2605304
-0.24678081
-0.23356341
-0.22088197
-0.20873375
-0.19711076
-0.18600085
-0.17538861
-0.16525618
-0.15558392
-0.14635097
-0.13753568
-0.12911604
-0.12106998
-0.11337558
-0.10601131
-0.098956178
-0.09218984
-0.085692695
-0.079445915
-0.073431529
-0.067632386
-0.062032215
-0.056615562
-0.051367832
-0.046275233
-0.041324762
-0.036504341
-0.031802222
-0.027209001
-0.022711187
-0.018311665
-0.01396523
-0.0097843235
-0.0054188839
-0.0022133546
1.2928413
1.290333
1.2841833
1.2746061
1.2620695
1.2466541
1.2282569
1.2068202
1.1823353
1.1547878
1.1241474
1.0903832
1.0534736
1.0134091
0.97019413
0.92385127
0.87442681
0.82199543
0.76666501
0.70858122
0.64793187
0.58495074
0.51992051
0.45317457
0.38509733
0.31612276
0.24673095
0.17744239
0.10880995
0.041408488
-0.024177604
-0.0873686
-0.14760483
-0.20436253
-0.25716932
-0.30561842
-0.34938072
-0.38821384
-0.4219678
-0.45058678
-0.4741069
-0.49265056
-0.50641747
-0.51567338
-0.52073725
-0.52196759
-0.51974895
-0.51447919
-0.5065579
-0.49637648
-0.48431009
-0.4707114
-0.45590603
-0.44018978
-0.4238271
-0.40705091
-0.39006322
-0.37303655
-0.35611591
-0.33942094
-0.32304844
-0.30707484
-0.29155863
-0.27654277
-0.26205686
-0.24811926
-0.23473886
-0.22191678
-0.20964778
-0.19792159
-0.18672392
-0.17603743
-0.16584254
-0.15611805
-0.1468417
-0.13799062
-0.12954172
-0.12147197
-0.11375865
-0.10637951
-0.099312952
-0.092538127
-0.08603498
-0.079784339
-0.073767903
-0.067968284
-0.062368961
-0.056954306
-0.051709509
-0.046620613
-0.041674371
-0.036858472
-0.032160784
-0.027571486
-0.023076236
-0.018677388
-0.014326768
-0.010138466
-0.0057305836
-0.0024409767
1.3033169
1.3009082
1.2949811
1.2856712
1.2733985
1.2582446
1.240111
1.2189338
1.1946965
1.1673775
1.1369381
1.1033375
1.0665422
1.0265298
0.98329038
0.93683153
0.88718383
0.8344062
0.77859123
0.71987041
0.65841944
0.59446271
0.52827726
0.4601956
0.39060683
0.31995592
0.24874085
0.17750715
0.10683963
0.037351489
-0.030329215
-0.095575378
-0.15777815
-0.21636516
-0.27081834
-0.32069064
-0.36562018
-0.40534113
-0.43969047
-0.46861007
-0.49214434
-0.5104334
-0.52370269
-0.53224977
-0.53642939
-0.53663772
-0.53329702
-0.52684117
-0.51770286
-0.5063028
-0.49304111
-0.47829082
-0.46239343
-0.44565634
-0.42835179
-0.41071707
-0.39295574
-0.37523956
-0.35771093
-0.34048553
-0.32365527
-0.30729104
-0.29144551
-0.27615569
-0.26144535
-0.24732718
-0.23380472
-0.22087413
-0.20852558
-0.19674461
-0.18551319
-0.17481063
-0.16461436
-0.15490056
-0.1456447
-0.13682193
-0.12840747
-0.12037683
-0.11270606
-0.1053719
-0.098351927
-0.09162458
-0.08516927
-0.078966377
-0.072997269
-0.067244279
-0.061690696
-0.056320712
-0.051119392
-0.046072629
-0.041167043
-0.036390115
-0.031729475
-0.02717489
-0.022711574
-0.018340827
-0.014014454
-0.0098433209
-0.0054684256
-0.0022462801
1.3159415
1.3136098
1.3078624
1.2987978
1.2868032
1.2719563
1.2541582
1.2333359
1.2094597
1.182496
1.1523938
1.119098
1.0825596
1.0427387
0.99960711
0.95315309
0.9033871
0.85034784
0.79410809
0.73478092
0.67252567
0.60755377
0.54013373
0.47059514
0.39933087
0.32679747
0.253513
0.18005186
0.10703656
0.035126036
-0.03499914
-0.10265448
-0.1671714
-0.22791828
-0.28432149
-0.3358851
-0.38220783
-0.4229961
-0.4580721
-0.4873764
-0.51096495
-0.529001
-0.5417425
-0.54952647
-0.55275132
-0.55185847
-0.54731468
-0.53959554
-0.52917139
-0.51649543
-0.50199468
-0.48606337
-0.46905879
-0.45129909
-0.4330629
-0.41459019
-0.39608418
-0.3777139
-0.35961727
-0.34190428
-0.32466035
-0.30794948
-0.29181738
-0.27629419
-0.26139714
-0.24713277
-0.23349893
-0.22048662
-0.20808136
-0.19626456
-0.18501456
-0.17430748
-0.16411801
-0.15441998
-0.14518682
-0.13639202
-0.12800934
-0.12001316
-0.11237856
-0.10508154
-0.098099063
-0.091409122
-0.084990785
-0.078824196
-0.072890553
-0.067172088
-0.061652014
-0.056314488
-0.051144532
-0.046128003
-0.041251441
-0.036502219
-0.031867769
-0.027337613
-0.022896499
-0.018545537
-0.014235013
-0.010077372
-0.0056913264
-0.0024192572
1.3306454
1.3283818
1.3227993
1.3139759
1.3022679
1.2877392
1.2702838
1.2498181
1.2262989
1.1996789
1.169893
1.1368701
1.1005435
1.0608536
1.0177513
0.97120213
0.92119316
0.86773921
0.81088963
0.75073538
0.68741627
0.62112798
0.55212862
0.48074408
0.40737186
0.33248267
0.25661925
0.18039188
0.10447002
0.029569849
-0.043562117
-0.11416911
-0.18150717
-0.24486985
-0.30361344
-0.35718057
-0.40512089
-0.44710685
-0.48294361
-0.5125721
-0.53606528
-0.55361812
-0.56553222
-0.57219673
-0.57406718
-0.5716436
-0.56544986
-0.55601471
-0.54385599
-0.52946752
-0.51330966
-0.4958027
-0.47732304
-0.45820161
-0.43872433
-0.41913391
-0.39963256
-0.38038545
-0.36152453
-0.34315239
-0.3253461
-0.30816094
-0.29163371
-0.2757859
-0.26062639
-0.24615391
-0.2323591
-0.21922633
-0.20673518
-0.1948617
-0.18357949
-0.17286053
-0.16267585
-0.15299611
-0.14379205
-0.1350348
-0.1266962
-0.11874895
-0.11116678
-0.10392457
-0.096998375
-0.090365475
-0.084004381
-0.077894805
-0.072017625
-0.066354832
-0.060889469
-0.055605556
-0.050488011
-0.045522586
-0.040695715
-0.035994629
-0.031406589
-0.026920857
-0.022521961
-0.018210375
-0.013936953
-0.0098115864
-0.0054722297
-0.0022661636
1.3473673
1.34517
1.3397489
1.3311684
1.3197586
1.3055691
1.2884868
1.2684187
1.2453083
1.2190931
1.1896918
1.157015
1.1209752
1.0814898
1.0384846
0.99189839
0.94168999
0.88784543
0.83038536
0.76937345
0.70492477
0.6372146
0.56648663
0.49306018
0.41733597
0.33979933
0.26102051
0.1816509
0.10241483
0.02409635
-0.052479081
-0.12646758
-0.19703387
-0.26338071
-0.32477926
-0.38059792
-0.43032759
-0.47360115
-0.51020547
-0.54008511
-0.56333735
-0.58019958
-0.59103004
-0.59628436
-0.5964896
-0.59221821
-0.58406334
-0.57261722
-0.55845314
-0.54211132
-0.52408902
-0.50483414
-0.4847422
-0.46415573
-0.44336576
-0.42261482
-0.40210086
-0.38198172
-0.3623799
-0.34338722
-0.32506929
-0.30746974
-0.29061397
-0.27451251
-0.25916403
-0.24455783
-0.23067598
-0.21749516
-0.20498816
-0.19312506
-0.18187423
-0.17120318
-0.1610791
-0.15146942
-0.14234213
-0.13366613
-0.1254114
-0.11754915
-0.11005195
-0.10289377
-0.096049987
-0.089497397
-0.083214184
-0.077179858
-0.071375193
-0.065782151
-0.060383794
-0.055164191
-0.050108322
-0.045201997
-0.040431687
-0.035784632
-0.031248058
-0.026811158
-0.022458335
-0.018190023
-0.013956733
-0.009868726
-0.0055545579
-0.0023448478
1.3660479
1.3639184
1.3586633
1.3503367
1.3392458
1.3254259
1.3087554
1.28913
1.2664779
1.2407192
1.2117536
1.1794707
1.143759
1.1045097
1.0616194
1.0149959
0.96456495
0.91027859
0.85212326
0.79012949
0.72438198
0.65503017
0.58229864
0.50649671
0.42802644
0.34738816
0.26518272
0.18210886
0.098955448
0.016587474
-0.064074319
-0.14208003
-0.21648245
-0.28637249
-0.35091619
-0.40939019
-0.46121306
-0.50596948
-0.54342511
-0.57353081
-0.5964162
-0.61237335
-0.62183249
-0.62533269
-0.6234899
-0.61696535
-0.60643625
-0.5925707
-0.57600731
-0.55733999
-0.53710787
-0.51578935
-0.4938001
-0.47149397
-0.44916586
-0.42705624
-0.40535652
-0.38421473
-0.36374142
-0.34401521
-0.32508797
-0.30698963
-0.28973232
-0.27331405
-0.25772183
-0.24293432
-0.22892402
-0.21565907
-0.20310471
-0.19122444
-0.17998093
-0.16933676
-0.15925494
-0.14969934
-0.14063501
-0.13202835
-0.12384734
-0.11606156
-0.10864229
-0.10156247
-0.094796724
-0.088321296
-0.082113967
-0.076153986
-0.070421966
-0.064899784
-0.059570469
-0.054418094
-0.049427654
-0.044584976
-0.03987654
-0.035289569
-0.030811257
-0.026430718
-0.022132337
-0.017916288
-0.013733675
-0.0096930361
-0.0054325372
-0.0022733481
1.3866264
1.3845688
1.3794902
1.371436
1.360692
1.3472794
1.3310674
1.3119396
1.2898086
1.264576
1.2361212
1.2043105
1.1690064
1.1300702
1.087366
1.0407659
0.99015738
0.93545249
0.87659692
0.81358114
0.74645224
0.67532679
0.60040377
0.52197704
0.44044638
0.35632592
0.27024888
0.18296695
0.095343205
0.0083376173
-0.077015782
-0.15963956
-0.23845077
-0.31240392
-0.38053642
-0.44201275
-0.49616352
-0.54251592
-0.58081215
-0.61101433
-0.63329585
-0.64802005
-0.65570928
-0.65700774
-0.65264189
-0.64338176
-0.63000603
-0.61327271
-0.59389631
-0.57253167
-0.54976384
-0.52610334
-0.50198556
-0.47777351
-0.45376278
-0.43018788
-0.40722941
-0.38502126
-0.36365778
-0.34320035
-0.32368342
-0.30511986
-0.28750557
-0.27082344
-0.2550466
-0.2401412
-0.22606855
-0.21278692
-0.20025295
-0.18842267
-0.17725236
-0.16669913
-0.15672139
-0.14727918
-0.13833436
-0.12985075
-0.12179425
-0.1141328
-0.10683641
-0.09987708
-0.093228764
-0.086867235
-0.080769992
-0.074916136
-0.069286236
-0.063862198
-0.058627132
-0.053565217
-0.048661571
-0.04390214
-0.039273511
-0.034762995
-0.030357862
-0.026047267
-0.021815697
-0.01766324
-0.013541604
-0.0095579055
-0.0053554984
-0.0022394008
1.4090384
1.4070588
1.4021718
1.3944152
1.3840533
1.371094
1.3553968
1.3368331
1.3152988
1.2906758
1.2628211
1.2315757
1.1967726
1.1582402
1.1158051
1.0692986
1.0185643
0.96346718
0.90390454
0.83981842
0.77120962
0.69815294
0.62081335
0.53946191
0.45449057
0.36642444
0.27593
0.18381717
0.09103379
-0.0013493137
-0.092163396
-0.18017748
-0.2641435
-0.34284884
-0.41517247
-0.48014045
-0.5369752
-0.58513408
-0.62433247
-0.65454947
-0.67601611
-0.68918735
-0.69470204
-0.69333575
-0.68595098
-0.67344982
-0.65673201
-0.63666093
-0.61403807
-0.5895862
-0.56393976
-0.53764187
-0.51114601
-0.48482124
-0.45895968
-0.43378527
-0.40946303
-0.38610808
-0.36379421
-0.34256168
-0.32242406
-0.3033742
-0.2853893
-0.26843503
-0.25246903
-0.23744358
-0.22330783
-0.21000942
-0.1974958
-0.18571517
-0.17461715
-0.16415325
-0.15427725
-0.14494534
-0.13611628
-0.1277514
-0.11981461
-0.11227239
-0.1050936
-0.098249469
-0.091713389
-0.085460816
-0.079469083
-0.073717247
-0.068185923
-0.062857126
-0.057714109
-0.052741215
-0.047923723
-0.043247736
-0.038699982
-0.034267896
-0.029938857
-0.025702105
-0.021542257
-0.017459458
-0.013405782
-0.0094876628
-0.0053464203
-0.0022640384
1.4332141
1.4313202
1.426644
1.419216
1.4092787
1.3968268
1.3817106
1.3637889
1.34294
1.3190254
1.2918782
1.2613121
1.2271281
1.1891183
1.1470679
1.1007624
1.0499948
0.99457572
0.93434569
0.86918871
0.79904877
0.72394807
0.64400682
0.55946341
0.47069392
0.37822933
0.28276843
0.18518383
0.086518737
-0.012027344
-0.10912636
-0.20336286
-0.29328811
-0.37748444
-0.45463551
-0.52359624
-0.58345581
-0.63358673
-0.6736742
-0.70372276
-0.72403981
-0.73519875
-0.7379866
-0.73334356
-0.72230017
-0.70591901
-0.68524425
-0.66126237
-0.63487399
-0.60687677
-0.57795739
-0.54869091
-0.51954579
-0.49089234
-0.4630135
-0.43611651
-0.41034466
-0.38578843
-0.36249565
-0.34048062
-0.31973179
-0.30021836
-0.28189571
-0.26470978
-0.24860053
-0.23350469
-0.21935784
-0.20609586
-0.19365619
-0.18197847
-0.17100514
-0.16068174
-0.15095708
-0.14178333
-0.13311596
-0.12491375
-0.1171386
-0.10975544
-0.10273205
-0.096038848
-0.08964874
-0.083536871
-0.07768045
-0.072058522
-0.066651779
-0.061442373
-0.056413726
-0.051550368
-0.046837772
-0.042262224
-0.037810629
-0.033470582
-0.029229627
-0.025077128
-0.020997977
-0.01699209
-0.013013024
-0.0091636887
-0.0051061884
-0.0021083546
1.4590767
1.4572777
1.4528351
1.4457721
1.4363088
1.4244268
1.4099678
1.3927776
1.3727172
1.3496264
1.3233135
1.2935628
1.2601414
1.2228012
1.181282
1.1353175
1.0846434
1.0290078
0.96818414
0.90198718
0.83029148
0.75305311
0.6703337
0.58232572
0.48937796
0.39201903
0.29097653
0.18718847
0.081804264
-0.023828487
-0.12819367
-0.22965417
-0.32651685
-0.41711175
-0.49988035
-0.57346483
-0.63678886
-0.68912105
-0.73011249
-0.75980424
-0.7786047
-0.78724005
-0.78668566
-0.77808781
-0.76268412
-0.74173123
-0.71644457
-0.68795291
-0.65726805
-0.62526841
-0.59269361
-0.56014773
-0.5281086
-0.49694068
-0.46690979
-0.4381985
-0.41092071
-0.3851352
-0.36085765
-0.33807092
-0.31673376
-0.29678795
-0.27816398
-0.26078561
-0.24457327
-0.22944673
-0.21532695
-0.20213739
-0.18980498
-0.17826059
-0.1674394
-0.15728098
-0.14772933
-0.13873275
-0.13024374
-0.12221872
-0.1146179
-0.10740497
-0.10054689
-0.094013584
-0.087777695
-0.081814305
-0.076100709
-0.070616133
-0.065341509
-0.060259268
-0.055353128
-0.050607913
-0.046009378
-0.041544078
-0.037199168
-0.032962478
-0.028821779
-0.024766658
-0.020782231
-0.016868798
-0.012979857
-0.0092192041
-0.0052325014
-0.0022510124
1.4865412
1.4848477
1.4806647
1.4740081
1.465075
1.4538337
1.4401179
1.4237613
1.4046068
1.3824726
1.3571411
1.3283663
1.2958784
1.2593867
1.218581
1.1731378
1.1227282
1.0670287
1.0057348
0.93857888
0.86535122
0.78592545
0.70028732
0.60856625
0.51106815
0.40830684
0.30103159
0.19024645
0.077216979
-0.036539784
-0.14928636
-0.25911931
-0.36404705
-0.46208792
-0.55138181
-0.6303047
-0.69757354
-0.75232885
-0.79418321
-0.82323
-0.84001131
-0.84545152
-0.84076628
-0.82736057
-0.80672748
-0.78035844
-0.74967116
-0.7159579
-0.68035383
-0.64382261
-0.60715543
-0.57097981
-0.53577474
-0.50188912
-0.46956159
-0.43894016
-0.4101002
-0.38306063
-0.35779783
-0.33425726
-0.31236301
-0.29202537
-0.27314676
-0.25562625
-0.23936284
-0.22425787
-0.21021664
-0.19714943
-0.18497215
-0.17360653
-0.16298028
-0.15302692
-0.14368557
-0.13490072
-0.12662189
-0.1188033
-0.11140352
-0.10438511
-0.097714298
-0.091360596
-0.085296475
-0.079497027
-0.073939671
-0.068603862
-0.06347081
-0.058523245
-0.053745201
-0.049121813
-0.044639139
-0.040284025
-0.036043903
-0.031906869
-0.027860981
-0.023896043
-0.019997666
-0.016165705
-0.01235626
-0.0086668295
-0.0047846264
-0.0019322288
1.5155133
1.513937
1.5100425
1.5038388
1.4954981
1.4849762
1.4720997
1.4566909
1.4385749
1.417548
1.3933668
1.3657534
1.3344002
1.2989705
1.2591005
1.2144037
1.164479
1.1089215
1.0473366
0.97935935
0.90467818
0.8230643
0.73440608
0.63874767
0.53633086
0.42763662
0.31342372
0.19475872
0.073031762
-0.050048092
-0.17248374
-0.2920516
-0.40639483
-0.51314503
-0.61006423
-0.69519303
-0.76698829
-0.82443132
-0.8670916
-0.89513643
-0.90928573
-0.91072183
-0.90096796
-0.88175455
-0.85488989
-0.82214889
-0.78518686
-0.74548186
-0.70430322
-0.66270144
-0.62151426
-0.58138304
-0.54277569
-0.50601235
-0.47129126
-0.43871343
-0.4083046
-0.38003414
-0.35383092
-0.32959627
-0.30721417
-0.28655923
-0.26750257
-0.24991618
-0.23367594
-0.21866363
-0.2047682
-0.19188636
-0.1799229
-0.16879051
-0.15840962
-0.14870799
-0.13962026
-0.13108747
-0.1230566
-0.11548004
-0.10831513
-0.1015237
-0.095071548
-0.088928093
-0.083065896
-0.077460301
-0.072089042
-0.066931972
-0.061970716
-0.057188424
-0.052569542
-0.048099601
-0.043765035
-0.039553045
-0.035451406
-0.031448549
-0.027532859
-0.023694513
-0.019919393
-0.016208221
-0.012516175
-0.0089446034
-0.0051400987
-0.0022710089
1.5458883
1.5444419
1.5408677
1.5351674
1.5274872
1.5177711
1.5058397
1.4915048
1.4745747
1.4548243
1.4319842
1.4057448
1.3757592
1.3416429
1.3029744
1.2592992
1.2101363
1.1549891
1.0933595
1.0247685
0.94878229
0.86504599
0.77332388
0.67354664
0.56586368
0.45069783
0.32879813
0.20128446
0.069676596
-0.064101128
-0.19774823
-0.32865624
-0.45401994
-0.57098869
-0.67684791
-0.7692127
-0.84620963
-0.90662073
-0.94996753
-0.97652141
-0.98724007
-0.9836433
-0.96764967
-0.94140027
-0.90709289
-0.86684379
-0.82258576
-0.77600548
-0.72851478
-0.68124853
-0.63508095
-0.59065264
-0.54840364
-0.50860789
-0.47140676
-0.43683935
-0.40486868
-0.37540357
-0.34831639
-0.32345707
-0.30066387
-0.27977137
-0.26061618
-0.24304089
-0.22689663
-0.21204458
-0.19835666
-0.18571569
-0.17401518
-0.16315886
-0.15306002
-0.14364092
-0.13483197
-0.12657111
-0.11880311
-0.11147886
-0.1045548
-0.097992269
-0.091756985
-0.085818476
-0.080149627
-0.074726199
-0.069526431
-0.064530687
-0.059721139
-0.055081462
-0.050596605
-0.046252587
-0.042036305
-0.037935407
-0.033938107
-0.030033261
-0.026209729
-0.022458042
-0.018764902
-0.015130201
-0.011513584
-0.0080055316
-0.0043307088
-0.0016635039
1.5775499
1.5762473
1.5730273
1.5678847
1.5609387
1.5521216
1.5412501
1.5281268
1.5125446
1.4942579
1.4729725
1.4483473
1.4199958
1.3874843
1.3503309
1.308008
1.2599475
1.2055505
1.1442012
1.0752877
0.99823082
0.91252142
0.81776721
0.71374955
0.60048853
0.47831363
0.34793504
0.21050831
0.067682349
-0.078381189
-0.22502933
-0.36919105
-0.50750911
-0.63652835
-0.75292923
-0.8537823
-0.93679118
-1.0004861
-1.0443359
-1.0687591
-1.0750328
-1.0651207
-1.041452
-1.0066875
-0.96350667
-0.91443559
-0.8617284
-0.80730187
-0.75271398
-0.69917507
-0.64757878
-0.59854355
-0.55245848
-0.50952888
-0.4698186
-0.43328674
-0.39981843
-0.36924949
-0.34138594
-0.3160188
-0.292935
-0.27192515
-0.25278866
-0.23533704
-0.21939578
-0.20480507
-0.19141987
-0.17910941
-0.16775642
-0.1572562
-0.14751556
-0.13845184
-0.12999187
-0.12207104
-0.11463241
-0.10762586
-0.10100731
-0.09473799
-0.088783797
-0.08311461
-0.077703815
-0.072527731
-0.067565207
-0.062797188
-0.058206444
-0.053777207
-0.049494956
-0.04534621
-0.041318344
-0.037399466
-0.033578246
-0.029844003
-0.026186051
-0.022595496
-0.019059315
-0.015579146
-0.012111846
-0.0087576336
-0.0051526768
-0.0023872224
1.6103696
1.6092252
1.6063955
1.6018683
1.5957345
1.5879158
1.5782271
1.5664639
1.5524053
1.5357873
1.5162923
1.4935494
1.4671332
1.4365602
1.4012866
1.3607076
1.3141614
1.2609362
1.2002837
1.1314391
1.0536516
0.96622467
0.86857043
0.76027626
0.64118487
0.51148451
0.37180419
0.22330506
0.06775522
-0.092427647
-0.25418409
-0.41388798
-0.5675004
-0.71080436
-0.83970642
-0.95057432
-1.0405647
-1.1078865
-1.1519523
-1.1733884
-1.1739038
-1.1560502
-1.1229192
-1.0778316
-1.0240623
-0.96462765
-0.90214983
-0.83879299
-0.77625714
-0.71580982
-0.65833769
-0.60440693
-0.55432526
-0.50820091
-0.46599504
-0.42756552
-0.39270209
-0.36115362
-0.33264891
-0.30691189
-0.28367219
-0.2626722
-0.24367127
-0.22644809
-0.21080149
-0.19655034
-0.18353266
-0.17160446
-0.16063826
-0.15052163
-0.14115566
-0.1324536
-0.12433951
-0.11674702
-0.10961828
-0.10290285
-0.096556813
-0.090541891
-0.084824664
-0.079375852
-0.074169742
-0.069183579
-0.064397126
-0.059792203
-0.055352418
-0.051062796
-0.046909555
-0.04287992
-0.038961939
-0.035144379
-0.031416561
-0.027768445
-0.02419007
-0.020673049
-0.017205664
-0.013787899
-0.010384419
-0.0070763138
-0.0036473464
-0.0012275137
1.6442059
1.643235
1.640833
1.6369811
1.6317412
1.6250255
1.6166494
1.6064041
1.5940573
1.5793293
1.561882
1.5413171
1.5171722
1.4889154
1.4559403
1.4175626
1.373021
1.3214816
1.2620484
1.1937827
1.1157326
1.0269772
0.92668584
0.81419683
0.68911387
0.55141987
0.4016022
0.24077969
0.070815293
-0.10560654
-0.28496314
-0.46296338
-0.63472489
-0.79506487
-0.93889228
-1.0616591
-1.1598075
-1.2311324
-1.2749886
-1.2922972
-1.2853561
-1.2574999
-1.2126844
-1.1550709
-1.0886703
-1.0170819
-0.9433424
-0.86987238
-0.79849753
-0.73051092
-0.6667531
-0.60769661
-0.55352817
-0.50422349
-0.45961113
-0.41942355
-0.38333622
-0.35099688
-0.32204687
-0.29613601
-0.27293213
-0.25212677
-0.23343794
-0.21661115
-0.20141891
-0.18765937
-0.17515452
-0.16374805
-0.15330323
-0.14370075
-0.13483681
-0.12662129
-0.1189761
-0.11183369
-0.10513573
-0.09883186
-0.092878605
-0.087238411
-0.081878709
-0.076771189
-0.071891078
-0.06721659
-0.062728393
-0.058409185
-0.054243363
-0.050216722
-0.046316194
-0.042529676
-0.038845878
-0.035254208
-0.031744634
-0.028307792
-0.024934354
-0.021616824
-0.018343656
-0.015118146
-0.011898422
-0.008786213
-0.0053849323
-0.0026862764
1.6789039
1.6781219
1.676186
1.6730712
1.6688093
1.6633047
1.6563763
1.6478142
1.6373781
1.6247761
1.6096535
1.5915884
1.5700851
1.5445664
1.5143645
1.4787152
1.4367543
1.3875174
1.3299473
1.2629093
1.1852196
1.0956902
0.99319342
0.87675107
0.74564967
0.59958177
0.43880869
0.26433395
0.078068391
-0.1170404
-0.31695051
-0.51657799
-0.70999423
-0.89078554
-1.0525639
-1.1895762
-1.2973208
-1.3730537
-1.4160746
-1.4277263
-1.4111143
-1.3706233
-1.3113422
-1.2385059
-1.1570336
-1.0712121
-0.98453304
-0.89966768
-0.81853239
-0.74239588
-0.67199716
-0.60766007
-0.54939945
-0.49701454
-0.45016515
-0.40842965
-0.37134709
-0.33844745
-0.30927273
-0.28339057
-0.26040189
-0.23994453
-0.22169404
-0.2053628
-0.1906979
-0.17747828
-0.16551165
-0.15463138
-0.14469345
-0.13557368
-0.12716526
-0.11937645
-0.11212865
-0.10535459
-0.098996766
-0.093006058
-0.087340463
-0.081963999
-0.076845704
-0.071958864
-0.067280197
-0.062789344
-0.058468288
-0.054300966
-0.05027288
-0.046370886
-0.042582908
-0.03889779
-0.03530516
-0.031795336
-0.028359207
-0.024988311
-0.021674358
-0.018410489
-0.015187158
-0.0120044
-0.0088338721
-0.005743811
-0.0026102452
-0.00053063725
1.7142948
1.7137172
1.712286
1.7099705
1.7067717
1.7025882
1.697246
1.6905378
1.6822193
1.6719912
1.6594873
1.6442677
1.6258091
1.6034933
1.576596
1.5442751
1.5055623
1.4593579
1.4044311
1.3394307
1.2629089
1.173364
1.0693087
0.94936759
0.81241251
0.65773447
0.48525225
0.29574587
0.091093746
-0.12552248
-0.3494935
-0.57479649
-0.79420402
-0.9997243
-1.1832688
-1.3374814
-1.4565992
-1.5371689
-1.5784468
-1.5823821
-1.5531981
-1.4966971
-1.4194608
-1.3280982
-1.2286489
-1.126198
-1.0247188
-0.92710144
-0.8352899
-0.75045337
-0.67315294
-0.60349237
-0.54125259
-0.48600601
-0.43720523
-0.3942463
-0.3565117
-0.32339991
-0.29434477
-0.2688266
-0.24637675
-0.2265783
-0.20906431
-0.19351465
-0.17965188
-0.16723682
-0.15606397
-0.14595737
-0.13676667
-0.1283637
-0.12063937
-0.1135011
-0.10687037
-0.10068074
-0.094876058
-0.089408827
-0.084238838
-0.079331946
-0.074659018
-0.070195056
-0.065918428
-0.061810257
-0.057853923
-0.054034618
-0.050339013
-0.046755027
-0.043271588
-0.039878495
-0.036566292
-0.033326211
-0.03015004
-0.027030258
-0.023959398
-0.020931899
-0.017938071
-0.014983779
-0.012027451
-0.0091761236
-0.0059659799
-0.003263334
1.7501959
1.7498381
1.7489496
1.7474948
1.7454436
1.7426911
1.7390742
1.7343928
1.7284038
1.7208059
1.7112282
1.6992199
1.6842377
1.6656307
1.6426247
1.6143055
1.5796043
1.5372841
1.4859326
1.4239639
1.3496346
1.2610808
1.156385
1.0336804
0.8913034
0.72800039
0.54318958
0.33727103
0.11196017
-0.12939758
-0.38159803
-0.63751872
-0.8883202
-1.1239762
-1.334148
-1.5093225
-1.6420309
-1.7278757
-1.7660983
-1.7595274
-1.7139458
-1.6370821
-1.537494
-1.4235541
-1.302676
-1.1808548
-1.062543
-0.95077763
-0.84742831
-0.7534562
-0.66913984
-0.5942676
-0.52830501
-0.47053302
-0.42014888
-0.3763316
-0.33828306
-0.30525488
-0.27656445
-0.25160161
-0.22982853
-0.21077621
-0.19403931
-0.17927004
-0.16617159
-0.15449157
-0.14401595
-0.13456365
-0.12598174
-0.11814127
-0.11093376
-0.10426815
-0.098068035
-0.092269535
-0.086819197
-0.081672345
-0.076791474
-0.072145019
-0.067706273
-0.063452438
-0.059363957
-0.055423794
-0.05161705
-0.047930505
-0.044352316
-0.040871769
-0.037479123
-0.03416546
-0.030922583
-0.027742962
-0.024619628
-0.021546244
-0.018516728
-0.015526171
-0.012567772
-0.0096413189
-0.0067277186
-0.0038777442
-0.0011032971
0.00051176772
1.7864109
1.7862877
1.7859785
1.7854435
1.7846219
1.7834076
1.7816531
1.7791704
1.7757233
1.7710157
1.76468
1.7562637
1.7452136
1.7308569
1.7123805
1.6888085
1.6589795
1.6215237
1.5748446
1.5171087
1.4462491
1.3599907
1.2559103
1.1315409
0.98453879
0.81292366
0.61540194
0.39177072
0.1433798
-0.12639865
-0.41177965
-0.70437578
-0.99335076
-1.2660417
-1.5091033
-1.7100856
-1.8591808
-1.9507213
-1.9839934
-1.9631142
-1.8960589
-1.7931901
-1.6656939
-1.524212
-1.3778304
-1.2335464
-1.0962322
-0.96893577
-0.85329751
-0.74992602
-0.65868955
-0.57895177
-0.50977535
-0.45008567
-0.39878014
-0.3547899
-0.31711478
-0.28484526
-0.25717357
-0.23339418
-0.21289756
-0.19516171
-0.17974314
-0.16626748
-0.15442005
-0.14393704
-0.1345978
-0.1262181
-0.11864438
-0.11174886
-0.10542544
-0.099586262
-0.094158655
-0.089082682
-0.084308853
-0.07979634
-0.075511248
-0.071425319
-0.067514776
-0.063759528
-0.060142342
-0.056648266
-0.053264289
-0.049978859
-0.046781648
-0.043663356
-0.040615603
-0.037630745
-0.034701854
-0.031822629
-0.028987315
-0.026190831
-0.023428122
-0.020696068
-0.017987096
-0.015310513
-0.012623516
-0.010042707
-0.0069937656
-0.0041858855
1.8227303
1.8228553
1.8231596
1.8236
1.8240852
1.8245111
1.8247504
1.824633
1.8239362
1.8223772
1.8196013
1.8151656
1.8085197
1.7989831
1.7857194
1.7677067
1.7437055
1.7122251
1.6714908
1.619417
1.5535921
1.4712855
1.3694904
1.2450202
1.09468
0.91553623
0.7053056
0.46287056
0.18890808
-0.11342393
-0.43785147
-0.77457265
-1.1102901
-1.4289076
-1.7130221
-1.9461312
-2.1151764
-2.2127642
-2.2383441
-2.1979405
-2.1026331
-1.9664031
-1.8039516
-1.6288468
-1.4521913
-1.2820323
-1.1235067
-0.97943328
-0.85098168
-0.73819446
-0.64034611
-0.55622274
-0.48436843
-0.42327661
-0.37150002
-0.32769782
-0.29065771
-0.25930964
-0.23272845
-0.21012448
-0.19082865
-0.17427787
-0.16000152
-0.1476083
-0.13677372
-0.12722914
-0.11875246
-0.11116041
-0.10430197
-0.098052965
-0.092311629
-0.086994763
-0.082034545
-0.077375893
-0.072974008
-0.068792479
-0.064801487
-0.060976498
-0.057297046
-0.053746138
-0.050309244
-0.04697387
-0.043729268
-0.040565938
-0.037475466
-0.034450349
-0.031483913
-0.028570202
-0.025703897
-0.022880253
-0.020095058
-0.017344661
-0.014625663
-0.011935392
-0.0092702016
-0.0066290916
-0.0040043039
-0.001424092
0.00091698833
0.0019267303
1.8589324
1.859318
1.8602663
1.8617321
1.8635943
1.865754
1.868109
1.8705136
1.8727659
1.8746052
1.875701
1.8756333
1.8738703
1.8697416
1.8624078
1.850823
1.8336928
1.8094269
1.7760897
1.7313513
1.6724473
1.5961571
1.4988179
1.3763967
1.2246529
1.0394247
0.8170797
0.55515723
0.25320638
-0.086230237
-0.45661716
-0.8466465
-1.2400153
-1.6161388
-1.9520794
-2.2256631
-2.4192454
-2.5230677
-2.5369722
-2.4698384
-2.3371726
-2.1579489
-1.9515903
-1.7354318
-1.5229598
-1.3232161
-1.141306
-0.97947055
-0.83811071
-0.71646602
-0.61301637
-0.52579764
-0.4527032
-0.3917056
-0.3409539
-0.29879306
-0.26376905
-0.23463423
-0.21033896
-0.19000863
-0.17291765
-0.15846761
-0.14616843
-0.1356203
-0.12649742
-0.11853435
-0.11151511
-0.10526418
-0.099639194
-0.094524969
-0.089828564
-0.085475296
-0.081405396
-0.077571064
-0.073934109
-0.070463981
-0.067135959
-0.063929845
-0.06082906
-0.057819866
-0.054890735
-0.052031758
-0.049234453
-0.046491444
-0.043796257
-0.041143255
-0.038527477
-0.035944663
-0.033391108
-0.030863648
-0.028359584
-0.02587681
-0.023413015
-0.020967826
-0.018535847
-0.016130372
-0.013705608
-0.011390972