/*--------------------------------*- C++ -*----------------------------------*\
| =========                 |                                                 |
| \\      /  F ield         | OpenFOAM: The Open Source CFD Toolbox           |
|  \\    /   O peration     | Version:  2406                                  |
|   \\  /    A nd           | Website:  www.openfoam.com                      |
|    \\/     M anipulation  |                                                 |
\*---------------------------------------------------------------------------*/
FoamFile
{
    version     2.0;
    format      ascii;
    arch        "LSB;label=32;scalar=64";
    class       surfaceScalarField;
    location    "1000";
    object      phi;
}
// * * * * * * * * * * * * * * * * * * * * * * * * * * * * * * * * * * * * * //

dimensions      [0 3 -1 0 0 0 0];

oriented        oriented;

internalField   nonuniform List<scalar> 
39940
(
0.75000232
-1.8722759e-06
0.75000724
-6.3137535e-06
0.75001478
-1.1362172e-05
0.75002483
-1.6845666e-05
0.75003735
-2.2714363e-05
0.75005234
-2.8955106e-05
0.75007042
-3.6155072e-05
0.7500904
-4.2498141e-05
0.7501129
-4.9769174e-05
0.75013792
-5.7353253e-05
0.75016548
-6.5234251e-05
0.75019557
-7.3392392e-05
0.7502288
-8.2403616e-05
0.75026394
-9.0437445e-05
0.75030155
-9.9258056e-05
0.75034158
-0.00010822155
0.75038456
-0.00011787666
0.75042917
-0.00012636239
0.75047649
-0.00013601113
0.75052516
-0.00014434434
0.75057617
-0.00015367823
0.75062809
-0.00016151839
0.75068186
-0.00017016821
0.75073597
-0.00017712276
0.75079129
-0.00018467957
0.75084626
-0.00019033198
0.75090168
-0.00019638223
0.75095594
-0.00020033391
0.75100983
-0.00020450708
0.75106172
-0.00020642937
0.7511124
-0.00020845208
0.75116026
-0.00020813946
0.75120553
-0.00020728393
0.75124847
-0.0002058987
0.75128758
-0.00020221759
0.75132323
-0.00019810315
0.75135524
-0.00019303549
0.75138347
-0.00018711406
0.75140787
-0.00018045348
0.75142785
-0.00017257804
0.75144467
-0.00016542299
0.75145784
-0.00015731922
0.75146693
-0.00014839794
0.75147335
-0.00014058811
0.75147613
-0.00013160099
0.75147673
-0.00012394522
0.75147423
-0.00011530636
0.75147011
-0.00010816467
0.75146345
-0.00010017614
0.75145573
-9.3791509e-05
0.75144601
-8.6638492e-05
0.75143575
-8.1141516e-05
0.75142396
-7.4904722e-05
0.75141208
-7.0331871e-05
0.75139907
-6.5009736e-05
0.75138633
-6.1327754e-05
0.75137338
-5.7462623e-05
0.75135977
-5.3390905e-05
0.7513468
-5.0890004e-05
0.75133397
-4.8129418e-05
0.75132074
-4.5081407e-05
0.75130838
-4.3521563e-05
0.75129633
-4.1619697e-05
0.75128464
-3.9951063e-05
0.75127333
-3.8491079e-05
0.75126241
-3.7216841e-05
0.7512513
-3.5505976e-05
0.7512412
-3.5141952e-05
0.7512315
-3.4303776e-05
0.75122222
-3.3576287e-05
0.75121333
-3.2944782e-05
0.75120482
-3.2396186e-05
0.75119669
-3.1918735e-05
0.75118891
-3.150205e-05
0.75118148
-3.1136897e-05
0.75117438
-3.0815161e-05
0.75116758
-3.0529715e-05
0.75116108
-3.0274284e-05
0.75115486
-3.0043453e-05
0.7511489
-2.9832403e-05
0.75114318
-2.9637076e-05
0.7511377
-2.9453789e-05
0.75113242
-2.927954e-05
0.75112735
-2.9111518e-05
0.75112246
-2.8947534e-05
0.75111775
-2.8785452e-05
0.75111319
-2.8623718e-05
0.75110878
-2.8460741e-05
0.75110451
-2.8295479e-05
0.75110036
-2.8126816e-05
0.75109632
-2.7954182e-05
0.75109239
-2.7776954e-05
0.75108855
-2.7595128e-05
0.7510848
-2.740868e-05
0.75108113
-2.7218801e-05
0.75107754
-2.702588e-05
0.75107402
-2.6836887e-05
0.75107058
-2.6647152e-05
0.75106725
-2.6519633e-05
-2.6387647e-05
0.75000164
-3.5092511e-06
0.750006
-1.0667324e-05
0.75001355
-1.8897679e-05
0.75002304
-2.6327962e-05
0.75003505
-3.4719435e-05
0.75004958
-4.3471958e-05
0.75006601
-5.2584438e-05
0.75008557
-6.2048362e-05
0.75010826
-7.2452176e-05
0.7501329
-8.1981941e-05
0.75016009
-9.2419365e-05
0.75019045
-0.00010373959
0.75022216
-0.00011410941
0.75025762
-0.00012588789
0.75029499
-0.00013662285
0.75033543
-0.00014865296
0.75037766
-0.00016010401
0.75042279
-0.00017149041
0.7504689
-0.00018211475
0.75051823
-0.00019366923
0.75056879
-0.0002042335
0.75062156
-0.00021427961
0.75067567
-0.00022427301
0.75073083
-0.00023227296
0.75078609
-0.00023994139
0.75084231
-0.00024654107
0.75089788
-0.00025194405
0.75095358
-0.00025603485
0.7510078
-0.00025871542
0.75106128
-0.00025991053
0.75111241
-0.0002595715
0.75116195
-0.00025767998
0.75120832
-0.00025364921
0.75125176
-0.00024933014
0.75129194
-0.00024240013
0.75132862
-0.00023477488
0.75136158
-0.00022599385
0.75139069
-0.00021622057
0.75141588
-0.00020563564
0.75143713
-0.00019382911
0.75145451
-0.000182799
0.75146753
-0.00017033312
0.75147755
-0.00015841741
0.75148359
-0.00014661959
0.75148708
-0.00013509013
0.7514871
-0.00012395847
0.75148512
-0.00011333133
0.75148025
-0.00010329243
0.75147398
-9.3902823e-05
0.7514654
-8.5202491e-05
0.75145597
-7.7212363e-05
0.75144477
-6.9936308e-05
0.75143323
-6.3364145e-05
0.75142037
-5.7474104e-05
0.7514076
-5.2235322e-05
0.75139388
-4.7610319e-05
0.75137998
-4.3556912e-05
0.75136662
-4.0030402e-05
0.75135331
-3.7585871e-05
0.75133956
-3.4374197e-05
0.75132723
-3.2754975e-05
0.75131399
-3.0280986e-05
0.75130169
-2.9315988e-05
0.75128976
-2.8019008e-05
0.75127762
-2.6355312e-05
0.7512665
-2.6096152e-05
0.75125641
-2.5409725e-05
0.75124614
-2.4871191e-05
0.7512363
-2.4457574e-05
0.75122688
-2.4148456e-05
0.75121726
-2.3324951e-05
0.75120865
-2.3774271e-05
0.75120042
-2.3679835e-05
0.75119256
-2.3630799e-05
0.75118505
-2.3616987e-05
0.75117788
-2.3629697e-05
0.75117103
-2.366148e-05
0.75116448
-2.3706072e-05
0.75115821
-2.3758119e-05
0.75115221
-2.381321e-05
0.75114646
-2.3867554e-05
0.75114094
-2.3918119e-05
0.75113564
-2.3962253e-05
0.75113054
-2.3997932e-05
0.75112564
-2.4023337e-05
0.75112091
-2.4037178e-05
0.75111634
-2.4038254e-05
0.75111192
-2.4025831e-05
0.75110763
-2.3999215e-05
0.75110347
-2.3958155e-05
0.75109943
-2.3902455e-05
0.75109549
-2.3832377e-05
0.75109165
-2.3748378e-05
0.7510879
-2.3651492e-05
0.75108422
-2.3543432e-05
0.75108062
-2.3426696e-05
0.75107709
-2.3306581e-05
0.75107363
-2.3186824e-05
0.75107019
-2.3076104e-05
-2.2922931e-05
0.75000203
-4.9347716e-06
0.75000623
-1.4864905e-05
0.75001245
-2.510876e-05
0.75002183
-3.569862e-05
0.75003375
-4.6623853e-05
0.75004818
-5.7894025e-05
0.75006572
-7.0122169e-05
0.7500852
-8.1510864e-05
0.75010661
-9.3854613e-05
0.75013177
-0.00010714116
0.75015891
-0.00011955031
0.75018863
-0.00013345304
0.75022154
-0.00014700855
0.75025642
-0.00016076424
0.75029446
-0.00017465418
0.75033441
-0.00018859757
0.75037681
-0.00020249916
0.75042157
-0.00021624772
0.75046918
-0.00022971679
0.75051888
-0.00024336562
0.75057049
-0.00025583919
0.75062319
-0.00026697118
0.75067731
-0.00027838988
0.75073316
-0.00028811576
0.7507892
-0.00029597117
0.75084625
-0.00030358651
0.75090331
-0.00030900066
0.75095996
-0.00031267345
0.75101514
-0.00031388859
0.75106959
-0.00031436444
0.75112168
-0.00031165073
0.75117155
-0.00030754439
0.75121939
-0.00030148321
0.75126361
-0.00029355108
0.75130449
-0.00028327486
0.75134235
-0.00027262623
0.75137576
-0.00025940488
0.75140459
-0.00024504467
0.75142996
-0.00023099942
0.75145126
-0.0002151261
0.75146795
-0.00019949037
0.75148137
-0.00018374484
0.75149108
-0.00016812735
0.75149672
-0.00015225074
0.75149974
-0.00013810528
0.75149922
-0.00012344161
0.75149608
-0.00011018635
0.75149122
-9.8430306e-05
0.75148375
-8.6429946e-05
0.75147457
-7.6021076e-05
0.75146397
-6.6609526e-05
0.75145282
-5.8782581e-05
0.75144016
-5.0705501e-05
0.75142743
-4.4738177e-05
0.75141361
-3.8421235e-05
0.7514001
-3.4097705e-05
0.75138644
-2.9898627e-05
0.75137277
-2.635798e-05
0.75135859
-2.3408827e-05
0.7513452
-2.0986126e-05
0.75133148
-1.9027679e-05
0.75131927
-1.807611e-05
0.75130623
-1.6274019e-05
0.75129419
-1.5975977e-05
0.75128256
-1.4732743e-05
0.75127138
-1.4908013e-05
0.75126003
-1.4061625e-05
0.75124973
-1.4565836e-05
0.75123987
-1.4589666e-05
0.75123043
-1.4709838e-05
0.75122202
-1.4905328e-05
0.75121341
-1.5158098e-05
0.7512046
-1.4851783e-05
0.75119675
-1.5776256e-05
0.75118927
-1.6117638e-05
0.75118212
-1.6467752e-05
0.75117529
-1.681903e-05
0.75116877
-1.7165239e-05
0.75116253
-1.7501334e-05
0.75115656
-1.782322e-05
0.75115084
-1.812767e-05
0.75114535
-1.8412105e-05
0.75114008
-1.8674579e-05
0.75113501
-1.891356e-05
0.75113014
-1.9127985e-05
0.75112543
-1.9317048e-05
0.75112089
-1.9480312e-05
0.75111649
-1.9617511e-05
0.75111223
-1.9728693e-05
0.7511081
-1.9814056e-05
0.75110408
-1.9874131e-05
0.75110016
-1.9909655e-05
0.75109634
-1.992182e-05
0.7510926
-1.9912148e-05
0.75108894
-1.9883146e-05
0.75108535
-1.9837382e-05
0.75108182
-1.9781702e-05
0.75107835
-1.9716926e-05
0.75107496
-1.9686831e-05
-1.9677053e-05
0.75000135
-6.2817085e-06
0.75000537
-1.8876689e-05
0.75001196
-3.1684963e-05
0.75002106
-4.4789568e-05
0.75003326
-5.8816781e-05
0.75004736
-7.1987525e-05
0.75006337
-8.6123269e-05
0.7500831
-0.00010123593
0.75010478
-0.00011552503
0.75012903
-0.00013138047
0.75015647
-0.00014698116
0.75018591
-0.00016289398
0.75021798
-0.00017907163
0.75025268
-0.00019545075
0.75028998
-0.00021195165
0.75033047
-0.00022907634
0.75037288
-0.00024490679
0.75041835
-0.00026170752
0.75046616
-0.00027752114
0.75051557
-0.00029277405
0.75056701
-0.00030727498
0.75062147
-0.00032141956
0.75067627
-0.00033319165
0.75073294
-0.00034477265
0.75079051
-0.00035354211
0.75084862
-0.00036169145
0.75090625
-0.00036662328
0.75096415
-0.00037057005
0.75102126
-0.00037099119
0.7510765
-0.00036959249
0.75113058
-0.00036572461
0.75118183
-0.0003587917
0.75123101
-0.00035065881
0.7512765
-0.00033904239
0.75131916
-0.00032592175
0.75135686
-0.00031032272
0.75139118
-0.00029371909
0.75142195
-0.00027581555
0.75144729
-0.00025633912
0.751469
-0.00023683016
0.75148654
-0.00021702312
0.75149943
-0.00019663768
0.75150848
-0.0001771731
0.75151453
-0.00015829138
0.75151664
-0.0001402174
0.75151574
-0.00012253262
0.75151273
-0.00010718009
0.75150616
-9.1852153e-05
0.75149874
-7.9011556e-05
0.751489
-6.6275538e-05
0.75147843
-5.60404e-05
0.75146612
-4.6468405e-05
0.75145352
-3.8106215e-05
0.75143967
-3.0883939e-05
0.75142597
-2.4720925e-05
0.7514114
-1.9529874e-05
0.75139672
-1.5220302e-05
0.75138267
-1.2302526e-05
0.75136814
-8.8844321e-06
0.75135444
-7.2853401e-06
0.75134104
-5.6217955e-06
0.75132738
-4.4205379e-06
0.75131472
-3.6134381e-06
0.75130248
-3.7398139e-06
0.75129069
-2.941246e-06
0.75127876
-2.9717548e-06
0.75126849
-3.7880944e-06
0.75125808
-4.1504675e-06
0.75124752
-4.026262e-06
0.75123801
-5.1903978e-06
0.75122892
-5.8159469e-06
0.75122026
-6.4836731e-06
0.75121259
-7.1766136e-06
0.75120411
-7.2796984e-06
0.75119659
-8.5842173e-06
0.75118942
-9.2778131e-06
0.75118257
-9.95384e-06
0.75117602
-1.0606267e-05
0.75116977
-1.1230368e-05
0.75116379
-1.1822544e-05
0.75115806
-1.2380082e-05
0.75115257
-1.2901053e-05
0.7511473
-1.3384096e-05
0.75114223
-1.3828389e-05
0.75113735
-1.4233465e-05
0.75113265
-1.459923e-05
0.75112811
-1.492581e-05
0.75112371
-1.5213618e-05
0.75111946
-1.5463234e-05
0.75111533
-1.5675508e-05
0.75111131
-1.5851469e-05
0.7511074
-1.5992463e-05
0.75110358
-1.6100128e-05
0.75109984
-1.6176595e-05
0.75109618
-1.6224514e-05
0.75109259
-1.6247548e-05
0.75108906
-1.6249781e-05
0.75108558
-1.6237925e-05
0.75108209
-1.6203008e-05
-1.6125981e-05
0.75000129
-7.5723102e-06
0.75000516
-2.2737855e-05
0.75001216
-3.8672382e-05
0.75002105
-5.3673684e-05
0.75003184
-6.9592489e-05
0.75004632
-8.6460891e-05
0.75006271
-0.0001025073
0.75008164
-0.0001201512
0.75010312
-0.00013699846
0.75012719
-0.00015544223
0.75015387
-0.00017366172
0.75018381
-0.00019282145
0.75021581
-0.00021106747
0.7502511
-0.00023072843
0.75028846
-0.00024931041
0.75032849
-0.0002690991
0.75037174
-0.00028815469
0.75041756
-0.0003075157
0.75046524
-0.00032519494
0.75051585
-0.00034338409
0.75056864
-0.00036005312
0.75062278
-0.00037555519
0.75067922
-0.00038963091
0.75073707
-0.00040261393
0.75079597
-0.00041243797
0.75085554
-0.00042124961
0.75091533
-0.00042641028
0.75097428
-0.00042951613
0.7510331
-0.00042980147
0.75109066
-0.0004271525
0.75114646
-0.00042151547
0.75119998
-0.00041230305
0.75125013
-0.00040080235
0.75129706
-0.00038596966
0.75134038
-0.00036923547
0.75138035
-0.00035029121
0.75141552
-0.00032888228
0.7514457
-0.00030599733
0.75147202
-0.00028265117
0.75149386
-0.00025866596
0.7515107
-0.0002338577
0.75152389
-0.00020982394
0.75153244
-0.00018572347
0.75153783
-0.00016367711
0.75153856
-0.00014094381
0.75153737
-0.00012134175
0.75153282
-0.0001026211
0.75152645
-8.5485139e-05
0.75151683
-6.9385091e-05
0.75150669
-5.6133796e-05
0.75149455
-4.3899653e-05
0.75148131
-3.32258e-05
0.75146723
-2.4030816e-05
0.75145257
-1.6216348e-05
0.75143752
-9.6728664e-06
0.75142287
-4.8858766e-06
0.75140819
-5.3550142e-07
0.75139299
2.8932166e-06
0.7513786
5.5123009e-06
0.75136388
7.4278331e-06
0.75135012
8.1375006e-06
0.75133677
8.9342008e-06
0.75132385
9.2990573e-06
0.75131081
9.3058462e-06
0.75129885
9.0200129e-06
0.75128738
8.4991064e-06
0.7512764
7.1922364e-06
0.75126531
6.9457831e-06
0.7512559
5.3927234e-06
0.75124574
4.9686151e-06
0.75123664
3.2959086e-06
0.75122797
2.1997072e-06
0.7512197
1.0972332e-06
0.75121243
3.360917e-09
0.75120433
-4.6894789e-07
0.75119718
-2.1130881e-06
0.75119037
-3.1187194e-06
0.75118386
-4.0811438e-06
0.75117764
-4.9961601e-06
0.7511717
-5.8607577e-06
0.75116601
-6.6729156e-06
0.75116056
-7.4313852e-06
0.75115533
-8.1355602e-06
0.7511503
-8.7853073e-06
0.75114546
-9.3808966e-06
0.7511408
-9.9228853e-06
0.7511363
-1.0412101e-05
0.75113194
-1.0849559e-05
0.75112773
-1.1236482e-05
0.75112363
-1.1574257e-05
0.75111965
-1.1864495e-05
0.75111577
-1.2109023e-05
0.75111198
-1.2309979e-05
0.75110827
-1.2469818e-05
0.75110464
-1.259156e-05
0.75110107
-1.2678463e-05
0.75109755
-1.2735667e-05
0.75109407
-1.2766016e-05
0.75109067
-1.2795441e-05
-1.2833285e-05
0.75000185
-8.8202835e-06
0.7500056
-2.6479282e-05
0.75001123
-4.4288502e-05
0.75001991
-6.234872e-05
0.75003165
-8.1326363e-05
0.75004467
-9.9466099e-05
0.75006137
-0.00011920517
0.75008
-0.00013877079
0.75010179
-0.00015877598
0.75012557
-0.00017921809
0.75015199
-0.00020007759
0.7501811
-0.00022191771
0.75021352
-0.0002434803
0.75024808
-0.00026528515
0.750286
-0.00028722647
0.75032608
-0.00030917303
0.7503695
-0.00033156545
0.750415
-0.00035301407
0.75046432
-0.00037450307
0.75051492
-0.00039398537
0.75056847
-0.00041359262
0.75062415
-0.00043123146
0.75068172
-0.00044719281
0.75074087
-0.00046176055
0.75080126
-0.00047281491
0.75086246
-0.00048245124
0.75092404
-0.00048798276
0.75098549
-0.00049096237
0.75104629
-0.00049059065
0.75110587
-0.00048673005
0.75116368
-0.00047931712
0.75121915
-0.00046777012
0.75127115
-0.00045279759
0.75132039
-0.00043519849
0.75136521
-0.00041405571
0.75140586
-0.00039093506
0.75144204
-0.00036506438
0.75147358
-0.00033752434
0.75150035
-0.00030942607
0.75152178
-0.00028008653
0.75153914
-0.00025121633
0.75155141
-0.00022209188
0.75155944
-0.00019374642
0.75156352
-0.00016775757
0.75156461
-0.00014202854
0.75156188
-0.00011860213
0.7515557
-9.6445657e-05
0.75154769
-7.7466298e-05
0.75153761
-5.9302962e-05
0.75152583
-4.4352231e-05
0.75151269
-3.0758484e-05
0.7514985
-1.9036376e-05
0.75148354
-9.0733119e-06
0.75146807
-7.3860926e-07
0.75145289
5.5083147e-06
0.75143698
1.1016588e-05
0.75142112
1.5331919e-05
0.75140601
1.7996375e-05
0.75139057
2.0949874e-05
0.75137608
2.1915806e-05
0.75136141
2.2815439e-05
0.75134779
2.255383e-05
0.75133405
2.3030585e-05
0.75132143
2.1927046e-05
0.75130933
2.1121717e-05
0.75129775
2.007918e-05
0.75128609
1.8856052e-05
0.75127614
1.6899759e-05
0.75126549
1.6054424e-05
0.75125652
1.3950429e-05
0.7512468
1.3020479e-05
0.75123813
1.0884116e-05
0.75122987
9.3634946e-06
0.75122202
7.8729432e-06
0.75121514
6.4245531e-06
0.75120741
5.6286262e-06
0.75120062
3.6892861e-06
0.75119414
2.4145603e-06
0.75118796
1.20702e-06
0.75118205
6.8930817e-08
0.75117639
-9.9845438e-07
0.75117097
-1.9946896e-06
0.75116577
-2.9199413e-06
0.75116078
-3.7748608e-06
0.75115597
-4.5604546e-06
0.75115134
-5.2780126e-06
0.75114687
-5.9290243e-06
0.75114254
-6.5151605e-06
0.75113835
-7.0382393e-06
0.75113428
-7.5002387e-06
0.75113032
-7.903283e-06
0.75112646
-8.2496881e-06
0.75112269
-8.5419752e-06
0.75111901
-8.7829856e-06
0.75111539
-8.9757637e-06
0.75111183
-9.1241825e-06
0.75110833
-9.2311547e-06
0.75110486
-9.3037822e-06
0.75110139
-9.3287999e-06
-9.3104428e-06
0.75000121
-1.0031285e-05
0.75000486
-3.0111607e-05
0.75001091
-5.0336885e-05
0.75001998
-7.1411013e-05
0.75003028
-9.1612061e-05
0.75004422
-0.00011339746
0.75006004
-0.00013501356
0.75007837
-0.00015709578
0.75009926
-0.00017966438
0.75012338
-0.00020332158
0.75014956
-0.00022625099
0.75017846
-0.00025081568
0.75021014
-0.00027515383
0.75024524
-0.00030037911
0.7502832
-0.00032517426
0.75032402
-0.00034999273
0.75036772
-0.00037525461
0.75041425
-0.00039954412
0.75046297
-0.0004232134
0.75051557
-0.00044657899
0.75057011
-0.00046812713
0.750627
-0.00048811554
0.750686
-0.00050618293
0.7507468
-0.00052255329
0.75080964
-0.00053564903
0.75087229
-0.00054510269
0.75093669
-0.00055237479
0.7510011
-0.00055536245
0.75106434
-0.00055382349
0.7511264
-0.00054879095
0.75118607
-0.00053898366
0.75124393
-0.00052562453
0.75129878
-0.00050764097
0.75135006
-0.00048647494
0.75139668
-0.00046067002
0.75143883
-0.00043307439
0.75147618
-0.0004024096
0.75150852
-0.0003698614
0.75153575
-0.00033665125
0.75155727
-0.00030160466
0.75157379
-0.00026773939
0.75158553
-0.00023382336
0.75159336
-0.00020157207
0.75159583
-0.00017022023
0.75159513
-0.00014132531
0.75159108
-0.00011455299
0.75158412
-8.9484178e-05
0.75157468
-6.8024077e-05
0.75156318
-4.7797589e-05
0.7515494
-3.0576927e-05
0.75153493
-1.6280212e-05
0.75151948
-3.5840678e-06
0.75150334
7.0595153e-06
0.75148679
1.5818411e-05
0.75147003
2.2269529e-05
0.75145325
2.7796634e-05
0.7514366
3.1977506e-05
0.75142021
3.4383339e-05
0.75140478
3.6378967e-05
0.75138918
3.7513945e-05
0.75137467
3.732479e-05
0.75136008
3.7137787e-05
0.75134665
3.6462256e-05
0.75133379
3.4794446e-05
0.75132089
3.4022429e-05
0.75130915
3.1815093e-05
0.75129797
3.0038333e-05
0.75128734
2.7543073e-05
0.75127722
2.6176913e-05
0.75126701
2.417368e-05
0.75125847
2.1563706e-05
0.75124919
2.0174623e-05
0.75124095
1.7622004e-05
0.75123311
1.5724296e-05
0.75122566
1.3892331e-05
0.75121917
1.2134955e-05
0.75121182
1.1059518e-05
0.75120538
8.8674147e-06
0.75119924
7.3642622e-06
0.75119338
5.9504501e-06
0.75118777
4.6263121e-06
0.7511824
3.3913929e-06
0.75117725
2.2446344e-06
0.7511723
1.1845413e-06
0.75116755
2.0929779e-07
0.75116296
-6.8314052e-07
0.75115854
-1.494993e-06
0.75115426
-2.2286052e-06
0.75115011
-2.886429e-06
0.75114608
-3.4710126e-06
0.75114217
-3.9850181e-06
0.75113835
-4.4312343e-06
0.75113462
-4.8125917e-06
0.75113097
-5.1322068e-06
0.75112738
-5.3933418e-06
0.75112385
-5.5995996e-06
0.75112038
-5.7544743e-06
0.75111693
-5.8628092e-06
0.75111354
-5.9331241e-06
-5.9903992e-06
0.75000118
-1.1206457e-05
0.75000531
-3.4237616e-05
0.7500112
-5.6216881e-05
0.75001885
-7.9053487e-05
0.75003009
-0.00010283615
0.75004313
-0.00012643358
0.75005863
-0.00015050255
0.75007663
-0.0001750873
0.75009779
-0.00020081657
0.75012097
-0.00022649947
0.75014745
-0.00025272355
0.7501761
-0.0002794536
0.75020818
-0.00030722746
0.75024256
-0.00033475186
0.75028049
-0.00036310247
0.75032142
-0.00039091675
0.75036477
-0.00041859474
0.75041173
-0.00044649724
0.75046226
-0.00047374166
0.7505151
-0.0004994053
0.7505707
-0.00052372872
0.75062951
-0.00054691621
0.75069068
-0.00056734596
0.75075331
-0.00058517655
0.75081763
-0.00059996298
0.7508838
-0.00061126846
0.75095071
-0.00061928252
0.7510172
-0.00062184082
0.75108383
-0.00062044829
0.75114874
-0.00061369416
0.75121183
-0.000602076
0.75127243
-0.00058621289
0.75132984
-0.00056505241
0.75138346
-0.00054008136
0.7514327
-0.00050991227
0.75147652
-0.00047688304
0.75151514
-0.00044102661
0.75154833
-0.0004030494
0.75157538
-0.00036369952
0.75159751
-0.00032373343
0.75161366
-0.00028388369
0.75162467
-0.00024482947
0.75163028
-0.00020717273
0.75163208
-0.00017202162
0.75162994
-0.000139178
0.75162372
-0.0001083351
0.75161453
-8.0285099e-05
0.75160283
-5.6324309e-05
0.75158969
-3.4658105e-05
0.75157494
-1.5825309e-05
0.75155837
2.9346513e-07
0.75154093
1.3860699e-05
0.75152352
2.4467661e-05
0.75150581
3.3527678e-05
0.75148802
4.0057677e-05
0.75147034
4.5479914e-05
0.75145291
4.9407238e-05
0.75143585
5.144219e-05
0.75141925
5.2977006e-05
0.75140377
5.2983877e-05
0.75138828
5.2822769e-05
0.75137398
5.143228e-05
0.7513597
5.0739998e-05
0.75134665
4.7848936e-05
0.75133421
4.6459355e-05
0.75132178
4.4247052e-05
0.75131055
4.1279993e-05
0.75129928
3.8817136e-05
0.75128976
3.5703683e-05
0.75128016
3.3781439e-05
0.75127046
3.1278627e-05
0.75126242
2.8220306e-05
0.75125363
2.6429112e-05
0.75124585
2.3516025e-05
0.75123847
2.1295267e-05
0.75123144
1.9173838e-05
0.75122536
1.7157146e-05
0.7512184
1.5849453e-05
0.75121233
1.344943e-05
0.75120654
1.1760309e-05
0.751201
1.018038e-05
0.7511957
8.7081647e-06
0.75119061
7.3416353e-06
0.75118573
6.0783737e-06
0.75118104
4.9156948e-06
0.75117651
3.8507408e-06
0.75117214
2.8805446e-06
0.75116792
2.0020635e-06
0.75116382
1.2121963e-06
0.75115984
5.0778936e-07
0.75115597
-1.143549e-07
0.7511522
-6.5749525e-07
0.75114851
-1.1249452e-06
0.7511449
-1.520151e-06
0.75114135
-1.8464751e-06
0.75113786
-2.1078662e-06
0.75113441
-2.306701e-06
0.75113099
-2.4500667e-06
0.75112759
-2.5279072e-06
-2.5657345e-06
0.75000174
-1.2345119e-05
0.75000457
-3.7054676e-05
0.75001088
-6.2521203e-05
0.7500189
-8.7062121e-05
0.75002925
-0.00011317683
0.75004197
-0.00013914594
0.75005711
-0.00016563727
0.75007534
-0.00019330632
0.75009552
-0.00022099117
0.75011834
-0.00024930892
0.75014448
-0.00027885461
0.75017343
-0.00030839547
0.75020468
-0.00033847068
0.75023952
-0.00036958447
0.75027742
-0.00040100376
0.75031847
-0.00043195502
0.7503627
-0.00046281896
0.75041014
-0.00049393042
0.75046078
-0.00052437469
0.75051517
-0.00055378807
0.7505726
-0.00058116089
0.75063233
-0.00060663927
0.75069533
-0.00063033539
0.75076069
-0.00065053386
0.75082805
-0.00066731125
0.75089693
-0.00068014699
0.75096681
-0.00068915159
0.75103705
-0.00069208161
0.75110638
-0.00068977406
0.75117526
-0.00068256702
0.75124231
-0.00066912185
0.75130675
-0.00065064878
0.75136722
-0.0006255123
0.75142299
-0.00059584808
0.75147463
-0.00056154836
0.7515204
-0.0005226512
0.7515605
-0.00048111988
0.75159466
-0.00043720235
0.75162216
-0.00039119564
0.75164364
-0.00034520783
0.75165927
-0.00029950977
0.75166935
-0.00025490366
0.75167427
-0.0002120926
0.75167391
-0.00017166016
0.7516694
-0.00013466081
0.75166128
-0.00010021265
0.75165071
-6.9712138e-05
0.75163702
-4.2637031e-05
0.75162073
-1.8365185e-05
0.75160351
1.4021029e-06
0.75158577
1.8033995e-05
0.75156668
3.2945939e-05
0.75154777
4.3375253e-05
0.75152811
5.3190038e-05
0.75150852
5.9650222e-05
0.75148977
6.4221005e-05
0.75147142
6.7755975e-05
0.75145357
6.9290009e-05
0.75143691
6.9643253e-05
0.75141967
7.0216881e-05
0.75140431
6.8183085e-05
0.75138903
6.6705199e-05
0.75137505
6.4718491e-05
0.75136116
6.1740893e-05
0.75134855
5.907642e-05
0.75133659
5.6210195e-05
0.75132466
5.3214502e-05
0.75131393
4.954824e-05
0.75130318
4.6462573e-05
0.75129358
4.3396262e-05
0.75128509
3.9779927e-05
0.75127588
3.7441492e-05
0.75126833
3.3995813e-05
0.75126
3.1861154e-05
0.75125267
2.8643533e-05
0.7512457
2.6152803e-05
0.75123909
2.3792067e-05
0.75123339
2.1563297e-05
0.75122679
2.0067801e-05
0.75122106
1.7501625e-05
0.75121559
1.5665811e-05
0.75121035
1.3956741e-05
0.75120534
1.2371308e-05
0.75120052
1.090609e-05
0.75119588
9.5574778e-06
0.75119142
8.3217553e-06
0.75118711
7.1951504e-06
0.75118294
6.1738761e-06
0.7511789
5.2541526e-06
0.75117498
4.4322136e-06
0.75117116
3.7042996e-06
0.75116743
3.0666521e-06
0.75116379
2.5155444e-06
0.75116022
2.047213e-06
0.75115672
1.6581059e-06
0.75115326
1.3441714e-06
0.75114985
1.1031248e-06
0.75114647
9.2774043e-07
0.75114312
8.2627199e-07
7.6337126e-07
0.7500011
-1.344503e-05
0.75000501
-4.0956212e-05
0.75000994
-6.7437328e-05
0.7500183
-9.5417071e-05
0.75002834
-0.00012320673
0.7500407
-0.00015149928
0.75005605
-0.00018097585
0.75007326
-0.00021050391
0.75009301
-0.00024073267
0.75011599
-0.00027229065
0.75014113
-0.00030398013
0.75016971
-0.00033697563
0.75020127
-0.00037001926
0.75023591
-0.00040421493
0.75027313
-0.00043822476
0.75031485
-0.00047366493
0.75035994
-0.0005078991
0.75040785
-0.00054183748
0.75045981
-0.00057633332
0.75051461
-0.00060857951
0.75057337
-0.00063991399
0.75063536
-0.00066861954
0.75070036
-0.00069533459
0.7507687
-0.00071886147
0.75083877
-0.00073738192
0.75091132
-0.00075268458
0.75098455
-0.00076237619
0.75105839
-0.00076592296
0.7511327
-0.00076407627
0.75120544
-0.0007553027
0.75127635
-0.00074001876
0.75134392
-0.00071821428
0.75140848
-0.00069007187
0.75146801
-0.00065537384
0.75152237
-0.00061590339
0.75157034
-0.00057061773
0.75161206
-0.00052283211
0.75164722
-0.00047236237
0.75167512
-0.00041908227
0.75169639
-0.00036647904
0.75171127
-0.00031438619
0.75171952
-0.00026314685
0.75172221
-0.0002147825
0.75171991
-0.00016935863
0.75171264
-0.00012738065
0.75170222
-8.9792851e-05
0.75168869
-5.6183631e-05
0.75167207
-2.600531e-05
0.7516547
-9.9956179e-07
0.75163531
2.0792723e-05
0.75161435
3.8995573e-05
0.75159341
5.3883166e-05
0.75157163
6.5158446e-05
0.75155108
7.3740893e-05
0.75153078
7.9949766e-05
0.7515103
8.4696606e-05
0.75149098
8.7073226e-05
0.75147171
8.8555047e-05
0.75145377
8.7587882e-05
0.75143718
8.6800254e-05
0.75142017
8.5188143e-05
0.75140455
8.2324092e-05
0.75139031
7.8959316e-05
0.75137623
7.5823626e-05
0.75136349
7.1823571e-05
0.75135145
6.8252537e-05
0.75134008
6.4584972e-05
0.75132875
6.0882744e-05
0.75131863
5.659485e-05
0.75130907
5.2963148e-05
0.75129945
4.9417845e-05
0.75129152
4.5381737e-05
0.75128286
4.2675674e-05
0.75127583
3.8908188e-05
0.75126799
3.6491916e-05
0.75126113
3.3027919e-05
0.75125462
3.0321737e-05
0.75124843
2.7772716e-05
0.75124253
2.5980608e-05
0.75123691
2.3139968e-05
0.75123153
2.1050482e-05
0.75122639
1.9107244e-05
0.75122147
1.7305965e-05
0.75121674
1.5642136e-05
0.75121219
1.4111137e-05
0.75120781
1.2708325e-05
0.75120358
1.1429083e-05
0.75119949
1.0268849e-05
0.75119552
9.2231232e-06
0.75119166
8.287471e-06
0.75118791
7.457545e-06
0.75118425
6.7290772e-06
0.75118066
6.0979091e-06
0.75117715
5.5599266e-06
0.75117369
5.1113313e-06
0.75117029
4.7479585e-06
0.75116693
4.4674835e-06
0.75116359
4.2627394e-06
0.75116028
4.1378794e-06
4.0458714e-06
0.75000166
-1.4503044e-05
0.75000425
-4.3532272e-05
0.75001017
-7.3348218e-05
0.75001765
-0.00010289302
0.75002734
-0.00013289168
0.75003991
-0.00016405118
0.7500542
-0.00019526707
0.75007093
-0.00022722072
0.75009078
-0.00026057543
0.75011267
-0.00029417219
0.75013792
-0.00032922483
0.75016547
-0.00036451698
0.75019665
-0.00040119695
0.75023102
-0.00043857185
0.7502693
-0.00047650219
0.75031044
-0.00051479646
0.75035515
-0.00055260345
0.75040473
-0.00059141213
0.75045685
-0.00062844157
0.75051391
-0.00066564255
0.7505741
-0.00070009618
0.75063851
-0.00073301821
0.75070634
-0.00076316459
0.75077673
-0.00078924104
0.75085108
-0.00081172997
0.7509271
-0.00082869932
0.75100418
-0.00083944196
0.75108337
-0.00084511068
0.75116144
-0.00084214449
0.75123927
-0.00083312582
0.75131526
-0.00081600386
0.75138779
-0.00079073737
0.75145584
-0.00075811949
0.75151966
-0.00071918929
0.75157659
-0.00067282398
0.75162771
-0.0006217303
0.75167127
-0.00056639529
0.75170696
-0.00050803934
0.75173583
-0.0004479525
0.75175618
-0.00038682589
0.75176949
-0.00032769432
0.75177622
-0.00026986413
0.75177693
-0.00021548824
0.75177169
-0.00016412239
0.75176244
-0.00011812911
0.75174872
-7.60629e-05
0.75173184
-3.9301971e-05
0.75171249
-6.6578808e-06
0.75169131
2.0184205e-05
0.75166885
4.3251231e-05
0.75164561
6.224047e-05
0.75162259
7.6898884e-05
0.75159955
8.8203573e-05
0.75157675
9.6539258e-05
0.75155381
0.00010288645
0.7515327
0.00010580457
0.75151173
0.00010803789
0.75149219
0.00010809409
0.75147292
0.00010685493
0.75145514
0.00010456927
0.75143827
0.0001020567
0.75142289
9.7702586e-05
0.75140778
9.407316e-05
0.7513935
9.0102906e-05
0.75138002
8.5305016e-05
0.7513679
8.0375537e-05
0.7513559
7.659407e-05
0.75134577
7.1017675e-05
0.75133507
6.7302652e-05
0.75132556
6.2482491e-05
0.75131661
5.8390025e-05
0.75130755
5.4446381e-05
0.75130018
5.0066222e-05
0.75129204
4.7063295e-05
0.75128551
4.3039809e-05
0.75127815
4.0403007e-05
0.75127173
3.6749196e-05
0.75126564
3.3879927e-05
0.75126044
3.1191116e-05
0.75125432
2.9279661e-05
0.75124904
2.6337666e-05
0.75124399
2.4162849e-05
0.75123916
2.2148616e-05
0.75123452
2.0289279e-05
0.75123005
1.857915e-05
0.75122575
1.7012608e-05
0.7512216
1.5584128e-05
0.75121758
1.4288311e-05
0.75121368
1.3119897e-05
0.75120989
1.2073769e-05
0.7512062
1.1144958e-05
0.7512026
1.0328635e-05
0.75119908
9.6201829e-06
0.75119563
9.0150911e-06
0.75119223
8.5093776e-06
0.75118888
8.098375e-06
0.75118557
7.7806301e-06
0.75118229
7.5463782e-06
0.75117901
7.4197751e-06
7.360014e-06
0.75000162
-1.5514903e-05
0.75000466
-4.6570498e-05
0.75000976
-7.8432666e-05
0.75001693
-0.00011005953
0.75002684
-0.00014279139
0.75003775
-0.0001749514
0.75005214
-0.00020965079
0.75006832
-0.00024338738
0.75008759
-0.0002798414
0.75010949
-0.00031606821
0.75013357
-0.00035329658
0.75016179
-0.00039272332
0.7501925
-0.0004319055
0.75022649
-0.00047255818
0.75026394
-0.00051394405
0.75030562
-0.00055646682
0.75035109
-0.00059806632
0.75040049
-0.00064080948
0.75045454
-0.00068248503
0.7505121
-0.00072319983
0.75057439
-0.00076237865
0.75064074
-0.00079936138
0.750711
-0.00083341356
0.7507855
-0.00086373813
0.75086267
-0.00088889065
0.75094258
-0.00090860921
0.75102579
-0.00092264647
0.7511091
-0.00092840828
0.75119336
-0.00092640576
0.75127635
-0.00091610139
0.75135691
-0.00089655881
0.75143507
-0.00086889215
0.75150904
-0.00083209314
0.75157652
-0.00078665651
0.75163828
-0.00073457997
0.75169168
-0.00067513086
0.75173731
-0.00061201598
0.75177477
-0.0005454977
0.75180274
-0.00047592141
0.75182316
-0.00040723926
0.75183518
-0.00033971035
0.75183936