/*--------------------------------*- C++ -*----------------------------------*\
| =========                 |                                                 |
| \\      /  F ield         | OpenFOAM: The Open Source CFD Toolbox           |
|  \\    /   O peration     | Version:  2406                                  |
|   \\  /    A nd           | Website:  www.openfoam.com                      |
|    \\/     M anipulation  |                                                 |
\*---------------------------------------------------------------------------*/
FoamFile
{
    version     2.0;
    format      ascii;
    arch        "LSB;label=32;scalar=64";
    class       volVectorField;
    location    "1000";
    object      U;
}
// * * * * * * * * * * * * * * * * * * * * * * * * * * * * * * * * * * * * * //

dimensions      [0 1 -1 0 0 0 0];

internalField   nonuniform List<vector> 
16045
(
(30.000021 -2.9912191e-05 0)
(30.000161 -0.00010527568 0)
(30.000412 -0.00019903632 0)
(30.000767 -0.00030793527 0)
(30.00122 -0.00042961953 0)
(30.00177 -0.00056310225 0)
(30.002419 -0.00070778923 -9.3160534e-25)
(30.003168 -0.0008631276 0)
(30.004017 -0.0010286208 0)
(30.004967 -0.0012038254 0)
(30.006019 -0.0013883053 0)
(30.007172 -0.0015815833 0)
(30.008426 -0.0017831115 7.9336142e-25)
(30.009782 -0.001992237 0)
(30.011237 -0.0022081862 0)
(30.012791 -0.0024300347 0)
(30.014439 -0.002656694 0)
(30.01618 -0.0028868858 -2.942152e-25)
(30.018008 -0.0031191456 -2.7750515e-25)
(30.019918 -0.0033518005 0)
(30.021901 -0.0035829914 0)
(30.02395 -0.0038106631 0)
(30.026054 -0.0040326045 0)
(30.028203 -0.0042464574 0)
(30.030383 -0.0044497775 2.8401213e-25)
(30.03258 -0.0046400638 0)
(30.03478 -0.0048148416 1.7187262e-25)
(30.036965 -0.0049717063 9.554754e-27)
(30.039121 -0.0051084203 6.6376368e-27)
(30.041229 -0.0052229658 -6.3272002e-27)
(30.043272 -0.0053136422 2.2835553e-27)
(30.045235 -0.0053791138 2.774825e-27)
(30.047101 -0.0054184858 -5.3677954e-27)
(30.048857 -0.0054313432 1.4824037e-25)
(30.050489 -0.0054177726 -1.2712476e-26)
(30.051987 -0.0053783789 -2.0656375e-27)
(30.053342 -0.0053142668 1.4776926e-26)
(30.054548 -0.0052270039 0)
(30.055601 -0.0051185693 1.9675707e-26)
(30.056501 -0.0049912775 3.0816404e-25)
(30.057248 -0.0048477041 0)
(30.057847 -0.0046905873 0)
(30.058303 -0.0045227423 3.7008058e-25)
(30.058623 -0.0043469753 0)
(30.058817 -0.0041660014 3.8201772e-25)
(30.058894 -0.0039823803 0)
(30.058865 -0.0037984606 0)
(30.058742 -0.0036163412 0)
(30.058535 -0.0034378467 0)
(30.058257 -0.0032645142 0)
(30.057918 -0.0030975962 0)
(30.057527 -0.0029380676 0)
(30.057096 -0.0027866463 0)
(30.056632 -0.0026438129 0)
(30.056145 -0.0025098408 0)
(30.05564 -0.0023848207 0)
(30.055125 -0.0022686922 0)
(30.054604 -0.0021612695 -2.8193015e-25)
(30.054083 -0.0020622671 0)
(30.053566 -0.001971324 0)
(30.053056 -0.0018880253 0)
(30.052556 -0.0018119177 0)
(30.052067 -0.0017425278 0)
(30.051592 -0.0016793731 0)
(30.051131 -0.0016219726 0)
(30.050686 -0.0015698552 0)
(30.050258 -0.0015225658 -1.7988394e-25)
(30.049845 -0.0014796689 0)
(30.049449 -0.0014407532 0)
(30.04907 -0.0014054328 0)
(30.048706 -0.0013733478 0)
(30.048358 -0.0013441658 0)
(30.048026 -0.0013175801 0)
(30.047708 -0.00129331 0)
(30.047404 -0.0012710993 0)
(30.047114 -0.0012507151 0)
(30.046836 -0.0012319465 0)
(30.04657 -0.0012146026 0)
(30.046316 -0.0011985119 0)
(30.046073 -0.0011835193 0)
(30.04584 -0.0011694868 0)
(30.045616 -0.001156289 0)
(30.045401 -0.0011438155 0)
(30.045194 -0.0011319656 0)
(30.044995 -0.0011206517 0)
(30.044804 -0.0011097931 0)
(30.044618 -0.0010993209 0)
(30.044439 -0.0010891713 0)
(30.044266 -0.001079291 0)
(30.044097 -0.0010696307 0)
(30.043934 -0.0010601514 0)
(30.043774 -0.0010508178 0)
(30.043619 -0.0010416063 0)
(30.043467 -0.0010324956 0)
(30.043319 -0.0010234931 0)
(30.043173 -0.0010145743 0)
(30.043033 -0.0010059047 0)
(30.042886 -0.00099718479 0)
(30.042777 -0.000990153 0)
(30.042577 -0.00098121381 0)
(30.000014 -8.8267638e-05 0)
(30.000126 -0.00028517954 0)
(30.00035 -0.00050594297 -9.8168103e-25)
(30.000681 -0.00074516177 0)
(30.001113 -0.00099936208 0)
(30.001644 -0.0012675399 0)
(30.002275 -0.001549213 9.3154192e-25)
(30.003007 -0.0018437707 0)
(30.00384 -0.0021505739 9.0089028e-25)
(30.004774 -0.0024689995 0)
(30.005811 -0.0027983597 0)
(30.006949 -0.0031378141 0)
(30.008191 -0.0034863189 -7.9329496e-25)
(30.009534 -0.0038425835 0)
(30.010979 -0.0042050369 0)
(30.012524 -0.0045717913 0)
(30.014166 -0.0049406197 -9.8074535e-25)
(30.015902 -0.0053089309 3.1928542e-25)
(30.017728 -0.0056737742 5.7164191e-25)
(30.019638 -0.0060318368 -5.341794e-25)
(30.021626 -0.0063794767 0)
(30.023683 -0.0067127518 0)
(30.025799 -0.0070274909 7.812846e-25)
(30.027963 -0.0073193614 3.4015032e-25)
(30.030163 -0.0075839801 -2.8397998e-25)
(30.032384 -0.007817018 0)
(30.034612 -0.0080143458 -1.8140728e-25)
(30.036829 -0.0081721672 0)
(30.03902 -0.00828718 0)
(30.041166 -0.0083567092 0)
(30.043251 -0.0083788548 -9.7481646e-27)
(30.045256 -0.008352595 9.7475291e-27)
(30.047167 -0.0082778799 0)
(30.048966 -0.0081556757 -1.0630794e-25)
(30.050642 -0.0079879685 -4.1914541e-26)
(30.052182 -0.0077777253 0)
(30.053577 -0.0075288072 -3.3681082e-26)
(30.05482 -0.00724584 -3.3704702e-27)
(30.055907 -0.0069340528 3.7049619e-26)
(30.056836 -0.0065990901 6.6560025e-27)
(30.057608 -0.0062468142 0)
(30.058227 -0.0058831061 0)
(30.058698 -0.005513676 7.1546703e-27)
(30.059029 -0.0051439016 0)
(30.059229 -0.0047786886 -3.8199369e-25)
(30.059309 -0.0044223709 0)
(30.059279 -0.0040786421 3.8944453e-25)
(30.059151 -0.0037505241 0)
(30.058938 -0.0034403651 0)
(30.058649 -0.0031498646 -3.7376204e-25)
(30.058299 -0.0028801189 3.6527453e-25)
(30.057895 -0.0026316806 0)
(30.05745 -0.0024046298 0)
(30.056972 -0.0021986466 0)
(30.056469 -0.0020130864 -1.5735854e-25)
(30.05595 -0.0018470497 -1.5200462e-25)
(30.05542 -0.0016994497 0)
(30.054885 -0.0015690703 2.8192032e-25)
(30.05435 -0.0014546164 0)
(30.05382 -0.0013547584 0)
(30.053298 -0.0012681671 0)
(30.052785 -0.001193541 -2.3506808e-25)
(30.052286 -0.0011296282 0)
(30.051801 -0.0010752421 0)
(30.051331 -0.0010292713 0)
(30.050878 -0.00099068589 0)
(30.050441 -0.00095854053 1.7987756e-25)
(30.050022 -0.0009319743 0)
(30.04962 -0.00091020952 0)
(30.049235 -0.00089254832 0)
(30.048866 -0.00087836799 -1.4386026e-25)
(30.048514 -0.00086711636 0)
(30.048177 -0.00085830608 0)
(30.047855 -0.00085150972 0)
(30.047548 -0.00084635375 0)
(30.047255 -0.00084251342 0)
(30.046975 -0.0008397077 0)
(30.046707 -0.0008376943 0)
(30.046451 -0.00083626549 0)
(30.046206 -0.00083524345 0)
(30.045971 -0.00083447722 0)
(30.045746 -0.00083383835 0)
(30.04553 -0.00083321894 0)
(30.045322 -0.00083252775 0)
(30.045123 -0.00083168926 0)
(30.04493 -0.00083064015 0)
(30.044744 -0.00082932944 0)
(30.044565 -0.00082771534 0)
(30.044391 -0.00082576643 0)
(30.044222 -0.00082345906 0)
(30.044058 -0.0008207797 0)
(30.043899 -0.00081772306 0)
(30.043743 -0.00081429732 0)
(30.043591 -0.00081052165 0)
(30.043443 -0.00080644678 0)
(30.043297 -0.00080212836 0)
(30.043157 -0.00079777086 0)
(30.043008 -0.00079341683 0)
(30.042899 -0.00079018917 0)
(30.042686 -0.00078680161 0)
(30.000012 -0.00014057907 0)
(30.000115 -0.00042817376 0)
(30.000332 -0.00072567174 9.816726e-25)
(30.000659 -0.00103255 0)
(30.001087 -0.0013484898 0)
(30.001614 -0.0016741149 0)
(30.002241 -0.0020099983 4.6566044e-25)
(30.002969 -0.0023562823 -4.6564295e-25)
(30.003799 -0.0027128319 -9.0086503e-25)
(30.00473 -0.0030793338 0)
(30.005764 -0.0034552517 0)
(30.006901 -0.0038397656 0)
(30.008142 -0.0042317258 8.0768816e-25)
(30.009486 -0.0046296276 0)
(30.010932 -0.0050315779 0)
(30.01248 -0.005435269 3.6570195e-25)
(30.014128 -0.005837956 1.0029963e-24)
(30.015872 -0.0062364502 0)
(30.017709 -0.0066271222 -5.8602332e-25)
(30.019632 -0.0070059274 5.3414385e-25)
(30.021636 -0.0073684416 -2.3298441e-25)
(30.023713 -0.0077099248 4.7071068e-25)
(30.025852 -0.0080254131 2.2011883e-25)
(30.028042 -0.0083098235 3.5041419e-25)
(30.030271 -0.0085580911 0)
(30.032524 -0.008765332 4.8090422e-25)
(30.034787 -0.0089270088 0)
(30.037041 -0.0090391184 2.6925602e-25)
(30.03927 -0.0090983733 0)
(30.041455 -0.0091023856 6.4965705e-26)
(30.043579 -0.009049811 -2.1759199e-26)
(30.045622 -0.0089404816 0)
(30.047568 -0.0087754773 -3.3141203e-26)
(30.049402 -0.0085571561 3.3139454e-26)
(30.051107 -0.0082891132 0)
(30.052673 -0.0079760959 -2.3263178e-25)
(30.054088 -0.0076238404 -6.9239816e-26)
(30.055347 -0.007238877 6.923808e-26)
(30.056444 -0.0068282908 0)
(30.057377 -0.0063994538 8.4236362e-27)
(30.058149 -0.0059597664 3.6083567e-25)
(30.058762 -0.0055164009 -3.7504116e-25)
(30.059223 -0.0050760749 -3.7719716e-25)
(30.059539 -0.0046448662 7.8566228e-25)
(30.059722 -0.0042280745 3.9685023e-25)
(30.059781 -0.0038301281 0)
(30.059729 -0.0034545465 4.0348234e-25)
(30.059578 -0.0031039437 -3.9263553e-25)
(30.05934 -0.0027800671 -1.897674e-25)
(30.059028 -0.0024838712 5.6353371e-25)
(30.058654 -0.0022156065 -3.6527522e-25)
(30.058228 -0.0019749231 0)
(30.057761 -0.0017609771 0)
(30.057263 -0.0015725388 0)
(30.056742 -0.0014080903 0)
(30.056206 -0.0012659183 1.5750956e-25)
(30.055661 -0.0011441918 6.3587382e-27)
(30.055113 -0.0010410301 4.3160485e-25)
(30.054566 -0.0009545567 0)
(30.054026 -0.00088294448 0)
(30.053495 -0.00082444567 0)
(30.052976 -0.00077741647 2.3507057e-25)
(30.05247 -0.00074033118 -2.24031e-25)
(30.05198 -0.00071179135 0)
(30.051506 -0.00069052883 -2.0148987e-25)
(30.05105 -0.00067540353 0)
(30.050611 -0.00066540081 0)
(30.05019 -0.00065962366 0)
(30.049787 -0.00065728582 0)
(30.049401 -0.00065770274 0)
(30.049032 -0.0006602828 1.4386119e-25)
(30.04868 -0.00066451763 0)
(30.048344 -0.0006699741 -1.2776993e-25)
(30.048023 -0.00067628522 0)
(30.047716 -0.00068314269 0)
(30.047424 -0.00069028952 0)
(30.047145 -0.0006975129 0)
(30.046878 -0.00070463878 0)
(30.046623 -0.00071152543 0)
(30.046379 -0.00071805962 0)
(30.046146 -0.00072415092 0)
(30.045922 -0.00072972933 0)
(30.045707 -0.00073474033 0)
(30.045501 -0.0007391438 0)
(30.045302 -0.0007429098 0)
(30.045111 -0.00074601864 0)
(30.044926 -0.0007484574 0)
(30.044747 -0.00075022105 0)
(30.044575 -0.00075130976 0)
(30.044407 -0.00075173093 0)
(30.044244 -0.00075149776 0)
(30.044085 -0.00075063226 0)
(30.04393 -0.00074916663 0)
(30.043779 -0.00074714644 0)
(30.043631 -0.00074464504 0)
(30.043485 -0.00074174845 0)
(30.043346 -0.00073866474 0)
(30.043198 -0.00073546681 0)
(30.043087 -0.00073305699 0)
(30.042883 -0.00073021686 0)
(30.000012 -0.00018684275 0)
(30.00011 -0.00056323145 0)
(30.000317 -0.00094756175 0)
(30.000634 -0.001342865 0)
(30.00105 -0.0017502262 0)
(30.001564 -0.0021702966 0)
(30.002178 -0.0026035818 0)
(30.002892 -0.0030502573 0)
(30.003709 -0.0035101587 0)
(30.004627 -0.0039828391 0)
(30.005648 -0.0044675486 0)
(30.006774 -0.0049631778 0)
(30.008004 -0.0054682019 -1.2266425e-24)
(30.009339 -0.005980635 -3.9846529e-25)
(30.010779 -0.0064979883 0)
(30.012323 -0.0070172329 -2.1418861e-24)
(30.01397 -0.0075347697 6.7904141e-25)
(30.015716 -0.0080464185 -1.5829908e-24)
(30.017559 -0.0085474174 8.9211353e-25)
(30.019492 -0.0090324509 0)
(30.021511 -0.0094957016 1.0066362e-24)
(30.023607 -0.0099309313 -4.4626273e-25)
(30.025771 -0.010331597 -7.9275973e-25)
(30.027991 -0.010690994 1.2977906e-26)
(30.030255 -0.011002435 0)
(30.032549 -0.011259466 -5.8917002e-25)
(30.034856 -0.011456089 4.8955038e-25)
(30.037159 -0.011587016 -2.6923422e-25)
(30.039439 -0.011647917 0)
(30.041679 -0.011635662 -1.9257725e-27)
(30.043858 -0.011548526 1.8852697e-26)
(30.045958 -0.011386362 4.5386435e-26)
(30.047959 -0.011150704 1.9038469e-25)
(30.049844 -0.010844802 0)
(30.051599 -0.010473573 0)
(30.053209 -0.010043476 2.3261558e-25)
(30.054664 -0.0095622936 0)
(30.055956 -0.0090388589 -7.8058227e-26)
(30.057079 -0.0084827273 7.8057075e-26)
(30.058032 -0.0079038135 -3.428579e-25)
(30.058817 -0.0073120351 1.1494435e-26)
(30.059436 -0.0067169671 -3.9796198e-25)
(30.059897 -0.0061275373 7.9380753e-25)
(30.060209 -0.0055517806 2.1882254e-26)
(30.060381 -0.0049966577 4.1780285e-25)
(30.060427 -0.0044679409 8.1575753e-25)
(30.060357 -0.0039701679 1.8574981e-26)
(30.060186 -0.0035066591 3.9263027e-25)
(30.059927 -0.0030795759 -7.8933008e-25)
(30.059593 -0.0026900286 0)
(30.059196 -0.0023381983 0)
(30.058747 -0.0020234821 -7.3138668e-25)
(30.058258 -0.0017446379 0)
(30.057739 -0.0014999267 0)
(30.057198 -0.0012872464 0)
(30.056643 -0.0011042507 0)
(30.05608 -0.00094845368 0)
(30.055516 -0.00081731672 -2.860977e-25)
(30.054955 -0.00070832078 -6.8430837e-25)
(30.054402 -0.00061901775 3.9611584e-25)
(30.053859 -0.00054707564 -2.4928312e-25)
(30.053329 -0.00049030459 -2.3683018e-25)
(30.052814 -0.00044667666 2.2403236e-25)
(30.052315 -0.00041433374 0)
(30.051835 -0.00039159334 -3.5177465e-28)
(30.051372 -0.00037694327 -1.9104054e-25)
(30.050928 -0.00036903749 0)
(30.050502 -0.00036668657 0)
(30.050095 -0.0003688479 0)
(30.049705 -0.00037461252 0)
(30.049334 -0.00038319488 0)
(30.048979 -0.0003939198 0)
(30.04864 -0.00040621125 1.2777007e-25)
(30.048318 -0.00041958102 -1.2003938e-25)
(30.04801 -0.00043361808 0)
(30.047716 -0.00044797978 0)
(30.047436 -0.00046238227 0)
(30.047169 -0.00047659255 0)
(30.046913 -0.00049042128 0)
(30.046669 -0.00050371601 0)
(30.046435 -0.0005163556 0)
(30.046211 -0.00052824482 0)
(30.045996 -0.00053931028 0)
(30.045789 -0.00054949631 0)
(30.045591 -0.00055876226 0)
(30.045399 -0.00056707954 0)
(30.045215 -0.00057443023 0)
(30.045036 -0.00058080517 0)
(30.044863 -0.0005862037 0)
(30.044696 -0.00059063292 0)
(30.044533 -0.00059410872 0)
(30.044374 -0.00059665628 0)
(30.04422 -0.00059831345 0)
(30.044069 -0.00059913244 0)
(30.043921 -0.00059919125 0)
(30.043775 -0.00059858614 0)
(30.043635 -0.00059749482 0)
(30.043486 -0.00059602682 0)
(30.043377 -0.00059477515 0)
(30.04316 -0.00059304634 0)
(30.000011 -0.00023076375 0)
(30.000105 -0.0006942499 0)
(30.000306 -0.0011639752 0)
(30.000614 -0.0016429197 0)
(30.001022 -0.0021322546 0)
(30.001527 -0.0026326392 -9.7600891e-25)
(30.002132 -0.0031447361 0)
(30.002838 -0.0036690009 0)
(30.003646 -0.0042055112 0)
(30.004557 -0.0047539641 9.0626532e-25)
(30.005571 -0.005313662 -8.8286096e-25)
(30.006692 -0.0058834569 1.7140073e-24)
(30.007918 -0.0064616778 8.1744413e-25)
(30.009252 -0.0070460789 0)
(30.010693 -0.0076337848 7.6445055e-25)
(30.012241 -0.0082212542 1.0829634e-24)
(30.013895 -0.0088042383 -6.5925645e-25)
(30.015653 -0.0093777727 2.9071538e-24)
(30.017511 -0.0099361808 1.2121184e-24)
(30.019466 -0.010473111 8.5546652e-25)
(30.021512 -0.010981599 -7.4105859e-25)
(30.02364 -0.011454174 9.260465e-25)
(30.025843 -0.011882997 0)
(30.028107 -0.012260055 -7.0340831e-25)
(30.030422 -0.012577374 6.082217e-25)
(30.032771 -0.012827301 -9.9566159e-25)
(30.035138 -0.013002779 -3.8122175e-25)
(30.037506 -0.013097677 0)
(30.039854 -0.013107099 0)
(30.042163 -0.013027686 -4.8394632e-27)
(30.044411 -0.012857882 7.5249927e-26)
(30.046579 -0.012598139 -7.3302142e-26)
(30.048645 -0.012251048 -4.3764565e-25)
(30.050591 -0.011821361 -2.6529159e-25)
(30.0524 -0.011315923 2.0795154e-25)
(30.054057 -0.010743477 1.8250862e-26)
(30.055551 -0.010114373 -1.3226234e-25)
(30.056872 -0.0094401928 -3.1920243e-25)
(30.058015 -0.0087333024 0)
(30.058978 -0.0080063783 3.6834207e-25)
(30.059763 -0.0072719297 4.0067575e-25)
(30.060375 -0.0065418591 1.5738905e-24)
(30.060819 -0.0058270759 -7.9377268e-25)
(30.061108 -0.0051371972 2.606977e-26)
(30.061251 -0.0044803328 -2.4931573e-24)
(30.061262 -0.0038629759 2.3019069e-26)
(30.061156 -0.0032899705 -8.1146452e-25)
(30.060946 -0.0027645679 8.2178842e-25)
(30.060647 -0.0022885367 7.8931888e-25)
(30.060272 -0.0018623275 0)
(30.059835 -0.0014852564 7.6682873e-25)
(30.059349 -0.0011557092 1.4745899e-24)
(30.058824 -0.00087134182 7.1787129e-25)
(30.05827 -0.00062927179 6.9130643e-25)
(30.057698 -0.00042625284 0)
(30.057114 -0.00025882758 0)
(30.056526 -0.00012345587 -6.0819403e-25)
(30.055939 -1.6622041e-05 0)
(30.055358 6.5084097e-05 5.5026387e-25)
(30.054787 0.00012490653 -2.6206839e-25)
(30.054228 0.00016587873 2.4928185e-25)
(30.053685 0.000190797 2.368287e-25)
(30.05316 0.00020220594 -2.2485016e-25)
(30.052652 0.00020239491 -2.1298558e-25)
(30.052164 0.00019340151 2.0184114e-25)
(30.051695 0.00017702298 3.8069524e-28)
(30.051246 0.00015482939 0)
(30.050817 0.0001281796 -1.7021647e-25)
(30.050407 9.8240125e-05 0)
(30.050015 6.6003688e-05 0)
(30.049643 3.2306933e-05 0)
(30.049287 -2.1514871e-06 0)
(30.048949 -3.6794282e-05 0)
(30.048626 -7.1150195e-05 1.2003941e-25)
(30.048319 -0.00010483918 -1.1226602e-25)
(30.048027 -0.00013756015 0)
(30.047748 -0.0001690785 0)
(30.047481 -0.00019921607 0)
(30.047227 -0.00022784157 0)
(30.046984 -0.00025486262 0)
(30.046752 -0.00028021823 0)
(30.04653 -0.00030387302 0)
(30.046316 -0.00032581155 0)
(30.046111 -0.00034603443 0)
(30.045914 -0.00036455432 0)
(30.045725 -0.00038139374 0)
(30.045542 -0.00039658249 0)
(30.045365 -0.00041015684 0)
(30.045193 -0.00042215823 0)
(30.045027 -0.00043263372 0)
(30.044866 -0.00044163594 0)
(30.044709 -0.00044922488 0)
(30.044555 -0.00045546946 0)
(30.044405 -0.0004604511 0)
(30.044259 -0.00046426768 0)
(30.044114 -0.00046703993 0)
(30.043975 -0.00046891492 0)
(30.043827 -0.00047008072 0)
(30.043716 -0.00047072094 0)
(30.04351 -0.00047103112 0)
(30.000011 -0.00027309387 0)
(30.000102 -0.00082086902 0)
(30.000297 -0.0013738387 0)
(30.000597 -0.0019352313 0)
(30.000995 -0.0025070694 0)
(30.00149 -0.0030907668 9.7599223e-25)
(30.002084 -0.0036875243 -9.7373009e-25)
(30.002778 -0.0042982112 9.5775516e-25)
(30.003574 -0.0049232115 0)
(30.004474 -0.0055624017 -9.0623821e-25)
(30.005477 -0.0062151417 1.7783768e-24)
(30.006587 -0.006880224 -3.4537609e-24)
(30.007805 -0.0075558016 0)
(30.009133 -0.0082393257 -2.0157426e-24)
(30.01057 -0.0089274828 -7.471411e-25)
(30.012118 -0.0096161455 3.7636687e-25)
(30.013776 -0.010300333 0)
(30.015543 -0.010974186 2.5704638e-26)
(30.017416 -0.011630973 -1.5066091e-24)
(30.019392 -0.012263122 3.1833647e-25)
(30.021464 -0.0128623 -2.095619e-24)
(30.023627 -0.013419527 -1.3680287e-24)
(30.02587 -0.013925345 2.1246075e-24)
(30.028183 -0.014370042 0)
(30.030554 -0.014743924 -1.7105995e-24)
(30.032965 -0.015037641 8.5583666e-25)
(30.035401 -0.015242547 7.8496692e-25)
(30.037843 -0.015351095 1.1031011e-25)
(30.040269 -0.015357231 -5.5819539e-26)
(30.042658 -0.015256781 -1.0961085e-26)
(30.044988 -0.015047785 -5.1087443e-26)
(30.047235 -0.014730764 -1.0417691e-25)
(30.049378 -0.014308887 4.7162865e-25)
(30.051395 -0.013788015 3.237362e-25)
(30.053269 -0.013176602 0)
(30.054982 -0.012485456 -1.3837244e-25)
(30.056522 -0.011727368 1.3836976e-25)
(30.057879 -0.010916624 6.5443584e-25)
(30.059046 -0.010068442 0)
(30.060022 -0.0091983583 -1.7600623e-25)
(30.060809 -0.0083216285 -1.771977e-24)
(30.061412 -0.0074526717 3.3253528e-26)
(30.06184 -0.0066045958 0)
(30.062103 -0.0057888317 3.0761261e-26)
(30.062215 -0.0050148893 -5.7967185e-26)
(30.062191 -0.0042902376 -1.0504642e-24)
(30.062045 -0.0036202951 2.1174315e-25)
(30.061793 -0.0030085206 -8.2177216e-25)
(30.061451 -0.0024565801 0)
(30.061034 -0.0019645611 1.6120631e-24)
(30.060557 -0.0015312228 -7.6682261e-25)
(30.060031 -0.0011542529 -2.2565765e-24)
(30.059469 -0.00083052035 -7.1786915e-25)
(30.058882 -0.00055631285 -6.9130566e-25)
(30.058279 -0.00032754396 0)
(30.057667 -0.00013993987 6.4259684e-25)
(30.057054 1.0812118e-05 1.2215043e-24)
(30.056445 0.00012894666 0)
(30.055845 0.00021852609 5.5587595e-25)
(30.055258 0.00028337812 0)
(30.054686 0.00032705043 0)
(30.054131 0.00035278743 -2.3749046e-25)
(30.053596 0.00036351852 2.2484408e-25)
(30.05308 0.00036186168 1.4394929e-28)
(30.052586 0.0003501309 -2.0126412e-25)
(30.052112 0.00033035306 1.9065371e-25)
(30.051659 0.00030428776 -1.7964214e-25)
(30.051227 0.00027344949 1.702127e-25)
(30.050815 0.00023912971 -1.5999436e-25)
(30.050423 0.00020242153 0)
(30.050049 0.00016424008 -1.4220205e-25)
(30.049693 0.00012534592 0)
(30.049355 8.6362907e-05 0)
(30.049033 4.77975e-05 0)
(30.048727 1.0055082e-05 1.1226466e-25)
(30.048435 -2.6545193e-05 -1.0479066e-25)
(30.048157 -6.1756703e-05 0)
(30.047892 -9.5394177e-05 0)
(30.047639 -0.00012732248 0)
(30.047398 -0.00015744764 0)
(30.047167 -0.0001857088 0)
(30.046946 -0.00021207159 0)
(30.046734 -0.00023652243 0)
(30.04653 -0.00025906365 0)
(30.046334 -0.00027970996 0)
(30.046146 -0.00029848538 0)
(30.045964 -0.00031542127 0)
(30.045788 -0.00033055484 0)
(30.045618 -0.00034392856 0)
(30.045453 -0.00035558982 0)
(30.045292 -0.00036559154 0)
(30.045136 -0.00037399296 0)
(30.044983 -0.00038086149 0)
(30.044834 -0.00038627452 0)
(30.044688 -0.0003903232 0)
(30.044544 -0.0003931116 0)
(30.044406 -0.00039477336 0)
(30.044258 -0.0003954122 0)
(30.044148 -0.00039535907 0)
(30.043933 -0.00039425523 0)
(30.00001 -0.00031408475 0)
(30.000099 -0.00094370942 0)
(30.000288 -0.0015781809 0)
(30.00058 -0.0022208865 -1.0204086e-24)
(30.00097 -0.0028742605 0)
(30.001454 -0.0035400224 -1.0003272e-24)
(30.002037 -0.0042195286 9.7371015e-25)
(30.002719 -0.0049137658 -9.5773348e-25)
(30.003503 -0.0056232283 0)
(30.004391 -0.0063478585 0)
(30.005384 -0.0070870122 -8.9551642e-25)
(30.006486 -0.0078394021 3.0774004e-24)
(30.007697 -0.0086030087 -1.2817317e-24)
(30.00902 -0.009375001 1.2212985e-24)
(30.010457 -0.010151659 1.6026105e-24)
(30.012008 -0.010928309 3.8332622e-25)
(30.013674 -0.011699267 0)
(30.015455 -0.012457804 -1.324181e-24)
(30.017349 -0.013196146 0)
(30.019352 -0.0139055 -8.6760937e-25)
(30.02146 -0.014576138 1.3144029e-24)
(30.023666 -0.015197527 -1.4346373e-24)
(30.025962 -0.015758524 4.3835215e-25)
(30.028337 -0.016247639 -7.3960616e-25)
(30.030777 -0.016653352 2.8537629e-24)
(30.033267 -0.016964514 -8.0815826e-25)
(30.035789 -0.017170786 -1.0115301e-24)
(30.038322 -0.017263124 1.0944144e-25)
(30.040845 -0.017234269 -1.0943233e-25)
(30.043333 -0.017079239 -1.8013211e-25)
(30.045762 -0.016795748 0)
(30.048107 -0.016384556 0)
(30.050343 -0.015849681 3.1503099e-25)
(30.052447 -0.015198463 -2.1143754e-25)
(30.054398 -0.014441446 4.5362464e-25)
(30.056178 -0.013592077 0)
(30.057771 -0.012666231 0)
(30.059167 -0.011681587 -6.8993868e-25)
(30.06036 -0.010656907 1.9175268e-25)
(30.061347 -0.0096112535 -1.9175472e-25)
(30.062131 -0.0085632355 1.6536972e-24)
(30.062719 -0.0075303002 -8.341002e-25)
(30.063119 -0.0065281507 0)
(30.063346 -0.0055703028 -8.6424327e-25)
(30.063413 -0.0046678042 1.7363752e-24)
(30.063338 -0.0038291131 0)
(30.063138 -0.0030601202 1.7714136e-24)
(30.062829 -0.0023642938 0)
(30.06243 -0.001742915 0)
(30.061957 -0.0011953712 -1.6120378e-24)
(30.061424 -0.00071948388 1.5988706e-24)
(30.060846 -0.00031183917 1.3258759e-24)
(30.060236 3.1889879e-05 3.67735e-25)
(30.059603 0.00031665544 1.2414405e-24)
(30.058959 0.00054777494 1.3596496e-24)
(30.05831 0.00073071567 -6.4257276e-25)
(30.057664 0.00087091832 -6.1329547e-25)
(30.057026 0.00097366 5.8760155e-25)
(30.0564 0.0010439497 2.1217912e-27)
(30.055791 0.0010864628 0)
(30.0552 0.001105494 0)
(30.05463 0.0011049375 2.3748196e-25)
(30.054081 0.00108828 0)
(30.053555 0.001058612 6.8814068e-28)
(30.053051 0.0010186426 6.0204944e-25)
(30.05257 0.00097072511 -1.8920215e-25)
(30.052112 0.00091688346 1.7963662e-25)
(30.051676 0.00085884349 0)
(30.051261 0.00079806083 1.1916677e-27)
(30.050867 0.00073575381 -1.4966184e-25)
(30.050492 0.00067292856 1.4219822e-25)
(30.050136 0.00061040833 0)
(30.049798 0.00054885602 0)
(30.049477 0.00048879764 0)
(30.049171 0.00043064237 0)
(30.048881 0.00037470024 1.0478841e-25)
(30.048604 0.00032119949 -9.7344695e-26)
(30.048341 0.0002702994 0)
(30.04809 0.00022210369 0)
(30.04785 0.00017667116 0)
(30.047621 0.00013402488 0)
(30.047402 9.4160356e-05 0)
(30.047192 5.7052081e-05 0)
(30.04699 2.2658757e-05 0)
(30.046796 -9.0723575e-06 0)
(30.04661 -3.8202467e-05 0)
(30.04643 -6.4798643e-05 0)
(30.046256 -8.8932418e-05 0)
(30.046087 -0.00011067885 0)
(30.045924 -0.00013011639 0)
(30.045765 -0.00014732694 0)
(30.04561 -0.00016239685 0)
(30.04546 -0.00017541733 0)
(30.045312 -0.00018648772 0)
(30.045167 -0.00019571086 0)
(30.045024 -0.00020321382 0)
(30.044887 -0.00020908462 0)
(30.04474 -0.00021357216 0)
(30.044631 -0.00021641489 0)
(30.044425 -0.00021877842 0)
(30.00001 -0.00035385403 0)
(30.000096 -0.0010630108 0)
(30.00028 -0.0017770019 -5.1519086e-25)
(30.000564 -0.0024993627 1.5355698e-24)
(30.000944 -0.0032328586 0)
(30.001417 -0.0039795898 1.00031e-24)
(30.001987 -0.004741273 1.001781e-24)
(30.002656 -0.0055192421 0)
(30.003427 -0.0063143161 0)
(30.004301 -0.0071267046 0)
(30.005282 -0.007955945 -4.524545e-25)
(30.006372 -0.0088008291 4.8528708e-25)
(30.007574 -0.0096593084 1.7129942e-24)
(30.00889 -0.010528391 1.6854674e-24)
(30.010324 -0.011404054 2.0442467e-24)
(30.011877 -0.01228115 -3.9129433e-25)
(30.01355 -0.013153345 0)
(30.015344 -0.014013062 0)
(30.017258 -0.014851466 0)
(30.01929 -0.015658488 1.8352386e-24)
(30.021436 -0.016422902 5.6790053e-25)
(30.02369 -0.017132473 3.4656754e-24)
(30.026044 -0.017774162 -1.2594175e-24)
(30.028486 -0.018334435 1.8897515e-24)
(30.031005 -0.018799635 -1.6201287e-24)
(30.033583 -0.019156448 1.0347179e-24)
(30.036201 -0.019392441 1.6191395e-24)
(30.038839 -0.019496646 0)
(30.041471 -0.019460174 -9.688638e-26)
(30.044073 -0.019276826 1.784409e-25)
(30.046616 -0.01894363 -6.9170948e-26)
(30.049073 -0.018461292 1.9398565e-25)
(30.051416 -0.01783448 -1.16916e-24)
(30.053618 -0.017071921 -1.7751229e-25)
(30.055657 -0.016186262 -5.1396949e-25)
(30.057511 -0.015193711 2.7179612e-25)
(30.059164 -0.014113433 0)
(30.060603 -0.012966774 1.6519428e-25)
(30.061821 -0.011776343 1.8948355e-25)
(30.062817 -0.01056503 0)
(30.063593 -0.0093550558 9.3987765e-25)
(30.064158 -0.0081670963 1.8374014e-24)
(30.064523 -0.0070195699 1.8686933e-24)
(30.064704 -0.0059281118 0)
(30.064716 -0.0049052602 0)
(30.06458 -0.0039603448 -1.8631967e-24)
(30.064315 -0.0030995601 -1.7713584e-24)
(30.063941 -0.0023261825 0)
(30.063475 -0.0016408983 0)
(30.062937 -0.0010421923 1.6943902e-24)
(30.062343 -0.0005267682 -1.5988509e-24)
(30.061707 -8.996242e-05 1.5730059e-24)
(30.061043 0.00027385831 1.5081729e-24)
(30.060362 0.00057094459 1.9530761e-25)
(30.059674 0.00080786315 -1.3675873e-24)
(30.058986 0.00099124709 -1.6684642e-25)
(30.058306 0.0011275988 0)
(30.057639 0.0012231418 -5.8757599e-25)
(30.056989 0.0012837135 -5.5795276e-25)
(30.056359 0.0013146989 0)
(30.055751 0.001320991 5.0115204e-25)
(30.055167 0.0013069796 4.7366323e-25)
(30.054607 0.0012765545 4.4739623e-25)
(30.054072 0.0012331265 2.1213349e-25)
(30.053562 0.0011796539 -2.2409482e-27)
(30.053077 0.0011186777 5.6510472e-25)
(30.052616 0.0010523598 1.7721882e-25)
(30.052178 0.00098251977 0)
(30.051762 0.00091067449 1.5879337e-25)
(30.051368 0.00083807336 1.4965731e-25)
(30.050995 0.00076573357 0)
(30.05064 0.00069447171 0)
(30.050304 0.00062493119 0)
(30.049985 0.00055761013 0)
(30.049682 0.00049288283 0)
(30.049394 0.0004310212 0)
(30.049121 0.0003722127 9.734215e-26)
(30.04886 0.0003165757 0)
(30.048612 0.00026417416 0)
(30.048375 0.00021502825 0)
(30.048149 0.00016912513 0)
(30.047932 0.00012642701 0)
(30.047725 8.6877946e-05 0)
(30.047526 5.0409276e-05 0)
(30.047335 1.6943775e-05 0)
(30.04715 -1.3601099e-05 0)
(30.046973 -4.1311291e-05 0)
(30.046801 -6.6274732e-05 0)
(30.046635 -8.8580653e-05 0)
(30.046473 -0.00010831938 0)
(30.046316 -0.00012558257 0)
(30.046164 -0.00014046381 0)
(30.046014 -0.00015305915 0)
(30.045868 -0.0001634687 0)
(30.045725 -0.00017179473 0)
(30.045584 -0.00017814772 0)
(30.045448 -0.00018263045 0)
(30.045302 -0.00018536161 0)
(30.045194 -0.00018649128 0)
(30.044984 -0.00018605834 0)
(30.00001 -0.00039241343 0)
(30.000093 -0.0011787496 0)
(30.000271 -0.0019701251 1.0563213e-24)
(30.000547 -0.0027703141 0)
(30.000916 -0.0035824299 0)
(30.001377 -0.0044089602 1.0309302e-24)
(30.001934 -0.0052519809 -1.0017624e-24)
(30.002588 -0.0061131427 -2.0063695e-24)
(30.003344 -0.0069935368 0)
(30.004203 -0.0078935849 0)
(30.00517 -0.0088129635 0)
(30.006246 -0.0097505141 3.6484931e-26)
(30.007438 -0.010704135 0)
(30.008746 -0.011670663 1.7603371e-24)
(30.010176 -0.012645757 -3.2380183e-24)
(30.011731 -0.013623789 -2.7878659e-24)
(30.013412 -0.014597754 -3.8144155e-25)
(30.015221 -0.015559194 0)
(30.017158 -0.01649816 0)
(30.019223 -0.017403219 -1.8196101e-24)
(30.021413 -0.018261528 -5.8335457e-25)
(30.023721 -0.019058978 -6.0892538e-24)
(30.026142 -0.019780423 -3.6431127e-24)
(30.028664 -0.020410015 -1.5391386e-24)
(30.031274 -0.020931644 5.9681202e-25)
(30.033955 -0.021329479 1.569326e-24)
(30.036687 -0.021588608 -1.2749988e-24)
(30.039448 -0.021695754 -3.4392869e-25)
(30.04221 -0.02164003 0)
(30.044945 -0.021413703 0)
(30.047624 -0.021012885 5.9082664e-26)
(30.050213 -0.020438112 -1.1733726e-25)
(30.052683 -0.019694731 5.2670038e-25)
(30.055003 -0.018793046 8.1950232e-25)
(30.057146 -0.017748176 7.6182952e-25)
(30.059088 -0.016579608 2.9290692e-25)
(30.06081 -0.015310461 0)
(30.062298 -0.013966499 0)
(30.063544 -0.012574974 0)
(30.064548 -0.0111634 0)
(30.065312 -0.0097583406 1.077156e-25)
(30.065848 -0.0083843349 -1.8372653e-24)
(30.066168 -0.0070630193 -1.8685701e-24)
(30.066291 -0.0058125083 3.9512523e-24)
(30.066236 -0.0046470445 0)
(30.066026 -0.0035769122 5.7469389e-24)
(30.065683 -0.0026085785 0)
(30.065228 -0.0017450095 -3.7162143e-24)
(30.064684 -0.00098611369 3.6056299e-24)
(30.064069 -0.00032925127 -5.1767658e-24)
(30.063401 0.00023023104 0)
(30.062697 0.00069848276 -1.5729196e-24)
(30.06197 0.0010826795 -1.5080863e-24)
(30.061232 0.0013905969 -1.4420054e-24)
(30.060492 0.0016302617 1.3915833e-24)
(30.05976 0.0018096646 1.3212089e-24)
(30.05904 0.0019365423 0)
(30.058339 0.0020182198 0)
(30.05766 0.0020615 0)
(30.057005 0.002072602 -1.0593176e-24)
(30.056376 0.0020571289 -1.0750505e-27)
(30.055775 0.0020200662 -4.7364411e-25)
(30.055202 0.0019657967 -2.4003476e-27)
(30.054657 0.0018981366 4.1949581e-25)
(30.054139 0.0018203692 -3.9852289e-25)
(30.053647 0.0017352953 -3.4054309e-27)
(30.053182 0.0016452788 8.7945698e-26)
(30.052741 0.0015522944 2.5093722e-25)
(30.052324 0.0014579744 0)