# vtk DataFile Version 3.0
Time Step 132, Physical Time = 0.001320s, Residual = 2.67e-03
ASCII
DATASET UNSTRUCTURED_GRID
POINTS 5000 float
0.318712 0.385257 0.000000
-0.318712 0.385257 0.000000
-0.318712 -0.385257 0.000000
0.318712 -0.385257 0.000000
0.093691 0.491144 0.000000
-0.093691 0.491144 0.000000
-0.093691 -0.491144 0.000000
0.093691 -0.491144 0.000000
0.404508 0.293893 0.000000
-0.404508 0.293893 0.000000
-0.404508 -0.293893 0.000000
0.404508 -0.293893 0.000000
0.438153 0.240877 0.000000
-0.438153 0.240877 0.000000
-0.438153 -0.240877 0.000000
0.438153 -0.240877 0.000000
0.500000 0.000000 0.000000
-0.500000 -0.000000 0.000000
0.364484 0.342274 0.000000
-0.364484 0.342274 0.000000
-0.364484 -0.342274 0.000000
0.364484 -0.342274 0.000000
0.496057 0.062667 0.000000
-0.496057 0.062667 0.000000
-0.496057 -0.062667 0.000000
0.496057 -0.062667 0.000000
0.212890 0.452414 0.000000
-0.212890 0.452414 0.000000
-0.212890 -0.452414 0.000000
0.212890 -0.452414 0.000000
0.154508 0.475528 0.000000
-0.154508 0.475528 0.000000
-0.154508 -0.475528 0.000000
0.154508 -0.475528 0.000000
0.267913 0.422164 0.000000
-0.267913 0.422164 0.000000
-0.267913 -0.422164 0.000000
0.267913 -0.422164 0.000000
0.031395 0.499013 0.000000
-0.031395 0.499013 0.000000
-0.031395 -0.499013 0.000000
0.031395 -0.499013 0.000000
0.464888 0.184062 0.000000
-0.464888 0.184062 0.000000
-0.464888 -0.184062 0.000000
0.464888 -0.184062 0.000000
0.484292 0.124345 0.000000
-0.484292 0.124345 0.000000
-0.484292 -0.124345 0.000000
0.484292 -0.124345 0.000000
-0.031454 0.499951 0.000000
0.438977 0.241329 0.000000
-0.268417 0.422957 0.000000
0.365169 0.342917 0.000000
-0.496990 -0.062784 0.000000
0.319311 -0.385981 0.000000
0.405269 0.294445 0.000000
-0.093867 0.492067 0.000000
0.500940 -0.000000 0.000000
-0.213290 0.453264 0.000000
-0.154799 0.476422 0.000000
0.031454 0.499951 0.000000
0.465762 0.184408 0.000000
0.319311 0.385981 0.000000
0.365169 -0.342917 0.000000
0.405269 -0.294445 0.000000
-0.365169 0.342917 0.000000
-0.319311 0.385981 0.000000
0.268417 0.422957 0.000000
0.213290 0.453264 0.000000
-0.319311 -0.385981 0.000000
0.154799 -0.476422 0.000000
-0.485202 -0.124579 0.000000
0.154799 0.476422 0.000000
0.268417 -0.422957 0.000000
0.093867 0.492067 0.000000
-0.031454 -0.499951 0.000000
-0.500940 0.000000 0.000000
0.438977 -0.241329 0.000000
-0.438977 -0.241329 0.000000
0.093867 -0.492067 0.000000
-0.485202 0.124579 0.000000
0.485202 0.124579 0.000000
-0.496990 0.062784 0.000000
0.213290 -0.453264 0.000000
0.031454 -0.499951 0.000000
0.496990 -0.062784 0.000000
0.465762 -0.184408 0.000000
-0.465762 -0.184408 0.000000
-0.213290 -0.453264 0.000000
-0.093867 -0.492067 0.000000
-0.405269 -0.294445 0.000000
0.496990 0.062784 0.000000
0.485202 -0.124579 0.000000
-0.154799 -0.476422 0.000000
-0.365169 -0.342917 0.000000
-0.465762 0.184408 0.000000
-0.438977 0.241329 0.000000
-0.405269 0.294445 0.000000
-0.268417 -0.422957 0.000000
-0.031523 0.501039 0.000000
0.439932 0.241854 0.000000
-0.269001 0.423877 0.000000
0.365964 0.343663 0.000000
-0.498071 -0.062921 0.000000
0.320005 -0.386820 0.000000
0.406150 0.295085 0.000000
-0.094071 0.493137 0.000000
0.502029 -0.000000 0.000000
-0.213754 0.454250 0.000000
-0.155136 0.477458 0.000000
0.031523 0.501039 0.000000
0.466775 0.184809 0.000000
0.365964 -0.343663 0.000000
0.406150 -0.295085 0.000000
0.320005 0.386820 0.000000
-0.365964 0.343663 0.000000
-0.320005 0.386820 0.000000
0.269001 0.423877 0.000000
0.213754 0.454250 0.000000
-0.320005 -0.386820 0.000000
0.155136 -0.477458 0.000000
-0.486257 -0.124850 0.000000
0.155136 0.477458 0.000000
0.269001 -0.423877 0.000000
0.094071 0.493137 0.000000
-0.031523 -0.501039 0.000000
-0.502029 0.000000 0.000000
0.439932 -0.241854 0.000000
-0.439932 -0.241854 0.000000
0.094071 -0.493137 0.000000
-0.486257 0.124850 0.000000
0.486257 0.124850 0.000000
-0.498071 0.062921 0.000000
0.213754 -0.454250 0.000000
0.031523 -0.501039 0.000000
0.466775 -0.184809 0.000000
0.498071 -0.062921 0.000000
-0.466775 -0.184809 0.000000
-0.213754 -0.454250 0.000000
-0.094071 -0.493137 0.000000
-0.406150 -0.295085 0.000000
0.498071 0.062921 0.000000
-0.155136 -0.477458 0.000000
0.486257 -0.124850 0.000000
-0.365964 -0.343663 0.000000
-0.466775 0.184809 0.000000
-0.439932 0.241854 0.000000
-0.406150 0.295085 0.000000
-0.269001 -0.423877 0.000000
-0.031604 0.502329 0.000000
0.441064 0.242477 0.000000
-0.269693 0.424969 0.000000
0.366906 0.344547 0.000000
-0.499353 -0.063083 0.000000
0.320829 -0.387816 0.000000
0.407196 0.295845 0.000000
-0.094313 0.494407 0.000000
0.503322 -0.000000 0.000000
-0.214304 0.455419 0.000000
-0.155535 0.478688 0.000000
0.031604 0.502329 0.000000
0.467977 0.185285 0.000000
0.366906 -0.344547 0.000000
0.407196 -0.295845 0.000000
0.320829 0.387816 0.000000
0.269693 0.424969 0.000000
-0.366906 0.344547 0.000000
-0.320829 0.387816 0.000000
0.214304 0.455419 0.000000
-0.320829 -0.387816 0.000000
0.155535 -0.478688 0.000000
-0.487509 -0.125171 0.000000
0.155535 0.478688 0.000000
0.269693 -0.424969 0.000000
-0.031604 -0.502329 0.000000
0.094313 0.494407 0.000000
-0.503322 0.000000 0.000000
0.441064 -0.242477 0.000000
-0.441064 -0.242477 0.000000
-0.487509 0.125171 0.000000
0.094313 -0.494407 0.000000
0.487509 0.125171 0.000000
-0.499353 0.063083 0.000000
0.214304 -0.455419 0.000000
0.031604 -0.502329 0.000000
0.467977 -0.185285 0.000000
0.499353 -0.063083 0.000000
-0.467977 -0.185285 0.000000
-0.214304 -0.455419 0.000000
-0.094313 -0.494407 0.000000
-0.407196 -0.295845 0.000000
0.499353 0.063083 0.000000
-0.155535 -0.478688 0.000000
0.487509 -0.125171 0.000000
-0.467977 0.185285 0.000000
-0.366906 -0.344547 0.000000
-0.441064 0.242477 0.000000
-0.407196 0.295845 0.000000
-0.269693 -0.424969 0.000000
-0.031700 0.503862 0.000000
0.442411 0.243217 0.000000
-0.270517 0.426266 0.000000
0.368026 0.345599 0.000000
-0.500877 -0.063276 0.000000
0.321809 -0.389000 0.000000
0.408439 0.296748 0.000000
-0.094601 0.495916 0.000000
0.504858 -0.000000 0.000000
-0.214958 0.456810 0.000000
-0.156010 0.480149 0.000000
0.031700 0.503862 0.000000
0.469405 0.185851 0.000000
0.368026 -0.345599 0.000000
0.408439 -0.296748 0.000000
0.321809 0.389000 0.000000
0.270517 0.426266 0.000000
-0.368026 0.345599 0.000000
-0.321809 0.389000 0.000000
0.214958 0.456810 0.000000
-0.321809 -0.389000 0.000000
0.156010 -0.480149 0.000000
0.270517 -0.426266 0.000000
-0.488997 -0.125553 0.000000
0.156010 0.480149 0.000000
-0.031700 -0.503862 0.000000
0.094601 0.495916 0.000000
-0.504858 0.000000 0.000000
0.442411 -0.243217 0.000000
-0.442411 -0.243217 0.000000
-0.488997 0.125553 0.000000
0.094601 -0.495916 0.000000
0.488997 0.125553 0.000000
-0.500877 0.063276 0.000000
0.214958 -0.456810 0.000000
0.031700 -0.503862 0.000000
0.469405 -0.185851 0.000000
0.500877 -0.063276 0.000000
-0.469405 -0.185851 0.000000
-0.214958 -0.456810 0.000000
-0.094601 -0.495916 0.000000
-0.408439 -0.296748 0.000000
-0.469405 0.185851 0.000000
0.500877 0.063276 0.000000
-0.156010 -0.480149 0.000000
0.488997 -0.125553 0.000000
-0.368026 -0.345599 0.000000
-0.442411 0.243217 0.000000
-0.408439 0.296748 0.000000
-0.270517 -0.426266 0.000000
-0.031815 0.505686 0.000000
0.444012 0.244098 0.000000
-0.271496 0.427809 0.000000
0.369358 0.346850 0.000000
-0.502691 -0.063505 0.000000
0.322974 -0.390408 0.000000
0.409918 0.297823 0.000000
-0.094943 0.497711 0.000000
0.506686 -0.000000 0.000000
-0.215736 0.458463 0.000000
-0.156575 0.481887 0.000000
0.031815 0.505686 0.000000
0.369358 -0.346850 0.000000
0.409918 -0.297823 0.000000
0.471105 0.186524 0.000000
0.322974 0.390408 0.000000
0.271496 0.427809 0.000000
-0.369358 0.346850 0.000000
-0.322974 0.390408 0.000000
0.215736 0.458463 0.000000
0.156575 -0.481887 0.000000
-0.322974 -0.390408 0.000000
0.271496 -0.427809 0.000000
-0.490768 -0.126008 0.000000
0.156575 0.481887 0.000000
-0.031815 -0.505686 0.000000
0.094943 0.497711 0.000000
-0.506686 0.000000 0.000000
0.444012 -0.244098 0.000000
-0.490768 0.126008 0.000000
-0.444012 -0.244098 0.000000
0.094943 -0.497711 0.000000
0.490768 0.126008 0.000000
-0.502691 0.063505 0.000000
0.215736 -0.458463 0.000000
0.031815 -0.505686 0.000000
0.471105 -0.186524 0.000000
-0.471105 -0.186524 0.000000
0.502691 -0.063505 0.000000
-0.215736 -0.458463 0.000000
-0.094943 -0.497711 0.000000
-0.409918 -0.297823 0.000000
-0.471105 0.186524 0.000000
0.502691 0.063505 0.000000
-0.156575 -0.481887 0.000000
0.490768 -0.126008 0.000000
-0.369358 -0.346850 0.000000
-0.444012 0.244098 0.000000
-0.409918 0.297823 0.000000
-0.271496 -0.427809 0.000000
-0.031952 0.507855 0.000000
0.445917 0.245145 0.000000
-0.272661 0.429644 0.000000
0.370943 0.348338 0.000000
-0.504847 -0.063777 0.000000
0.324359 -0.392083 0.000000
0.411676 0.299100 0.000000
-0.095351 0.499846 0.000000
0.508859 -0.000000 0.000000
-0.216662 0.460430 0.000000
-0.157246 0.483954 0.000000
0.031952 0.507855 0.000000
0.370943 -0.348338 0.000000
0.411676 -0.299100 0.000000
0.324359 0.392083 0.000000
0.473126 0.187324 0.000000
0.272661 0.429644 0.000000
-0.370943 0.348338 0.000000
-0.324359 0.392083 0.000000
0.216662 0.460430 0.000000
0.157246 -0.483954 0.000000
-0.324359 -0.392083 0.000000
0.272661 -0.429644 0.000000
0.157246 0.483954 0.000000
-0.492873 -0.126548 0.000000
-0.031952 -0.507855 0.000000
0.095351 0.499846 0.000000
0.445917 -0.245145 0.000000
-0.508859 0.000000 0.000000
-0.492873 0.126548 0.000000
-0.445917 -0.245145 0.000000
0.095351 -0.499846 0.000000
-0.504847 0.063777 0.000000
0.216662 -0.460430 0.000000
0.492873 0.126548 0.000000
0.031952 -0.507855 0.000000
0.473126 -0.187324 0.000000
-0.473126 -0.187324 0.000000
0.504847 -0.063777 0.000000
-0.216662 -0.460430 0.000000
-0.095351 -0.499846 0.000000
-0.473126 0.187324 0.000000
-0.411676 -0.299100 0.000000
-0.157246 -0.483954 0.000000
0.504847 0.063777 0.000000
0.492873 -0.126548 0.000000
-0.370943 -0.348338 0.000000
-0.445917 0.245145 0.000000
-0.411676 0.299100 0.000000
-0.272661 -0.429644 0.000000
0.318712 0.385257 0.100000
-0.318712 0.385257 0.100000
[...]
POINT_DATA 5000
SCALARS pressure float 1
LOOKUP_TABLE default
101789.319365
101789.319365
101789.319365
101789.319365
101789.319365
101789.319365
101789.319365
101789.319365
101789.319365
101789.319365
101789.319365
101789.319365
101789.319365
101789.319365
101789.319365
101789.319365
101325.000000
101325.000000
101325.000000
101325.000000
101325.000000
101325.000000
101325.000000
101325.000000
101325.000000
101325.000000
101325.000000
101325.000000
101325.000000
101325.000000
101325.000000
101325.000000
101325.000000
101325.000000
101325.000000
101325.000000
101325.000000
101325.000000
101325.000000
101325.000000
101325.000000
101325.000000
101325.000000
101325.000000
101325.000000
101325.000000
101325.000000
101325.000000
101325.000000
101325.000000
101323.613323
101324.676897
101324.007540
101324.347625
101324.978131
101324.173484
101324.519019
101323.656716
101325.000000
101323.860217
101323.740775
101323.613323
101324.811340
101324.173484
101324.347625
101324.519019
101324.347625
101324.173484
101324.007540
101323.860217
101324.173484
101323.740775
101324.913899
101323.740775
101324.007540
101323.656716
101323.613323
101325.000000
101324.676897
101324.676897
101323.656716
101324.913899
101324.913899
101324.978131
101323.860217
101323.613323
101324.978131
101324.811340
101324.811340
101323.860217
101323.656716
101324.519019
101324.978131
101324.913899
101323.740775
101324.347625
101324.811340
101324.676897
101324.519019
101324.007540
101322.015105
101324.304504
101322.863676
101323.595727
101324.952926
101323.220881
101323.964662
101322.108510
101325.000000
101322.546557
101322.289450
101322.015105
101324.593899
101323.595727
101323.964662
101323.220881
101323.595727
101323.220881
101322.863676
101322.546557
101323.220881
101322.289450
101324.814663
101322.289450
101322.863676
101322.108510
101322.015105
101325.000000
101324.304504
101324.304504
101322.108510
101324.814663
101324.814663
101324.952926
101322.546557
101322.015105
101324.593899
101324.952926
101324.593899
101322.546557
101322.108510
101323.964662
101324.952926
101322.289450
101324.814663
101323.595727
101324.593899
101324.304504
101323.964662
101322.863676
101320.132379
101323.865819
101321.516188
101322.709981
101324.923235
101322.098700
101323.311622
101320.284699
101325.000000
101320.999046
101320.579768
101320.132379
101324.337750
101322.709981
101323.311622
101322.098700
101321.516188
101322.709981
101322.098700
101320.999046
101322.098700
101320.579768
101324.697762
101320.579768
101321.516188
101320.132379
101320.284699
101325.000000
101323.865819
101323.865819
101324.697762
101320.284699
101324.697762
101324.923235
101320.999046
101320.132379
101324.337750
101324.923235
101324.337750
101320.999046
101320.284699
101323.311622
101324.923235
101320.579768
101324.697762
101324.337750
101322.709981
101323.865819
101323.311622
101321.516188
101317.913199
101323.348738
101319.927896
101321.665947
101324.888237
101320.775979
101322.541879
101318.134963
101325.000000
101319.174985
101318.564556
101317.913199
101324.035826
101321.665947
101322.541879
101320.775979
101319.927896
101321.665947
101320.775979
101319.174985
101320.775979
101318.564556
101319.927896
101324.559970
101318.564556
101317.913199
101318.134963
101325.000000
101323.348738
101323.348738
101324.559970
101318.134963
101324.559970
101324.888237
101319.174985
101317.913199
101324.035826
101324.888237
101324.035826
101319.174985
101318.134963
101322.541879
101324.035826
101324.888237
101318.564556
101324.559970
101321.665947
101323.348738
101322.541879
101319.927896
101315.299885
101322.739822
101318.057517
101320.436488
101324.847023
101319.218337
101321.635427
101315.603426
101325.000000
101317.026965
101316.191435
101315.299885
101320.436488
101321.635427
101323.680279
101319.218337
101318.057517
101320.436488
101319.218337
101317.026965
101316.191435
101319.218337
101318.057517
101324.397706
101316.191435
101315.299885
101315.603426
101325.000000
101322.739822
101324.397706
101322.739822
101315.603426
101324.397706
101324.847023
101317.026965
101315.299885
101323.680279
101323.680279
101324.847023
101317.026965
101315.603426
101321.635427
101323.680279
101324.847023
101316.191434
101324.397706
101320.436488
101322.739822
101321.635427
101318.057517
101312.228738
101322.024229
101315.859461
101318.991637
101324.798590
101317.387809
101320.570172
101312.628382
101325.000000
101314.502627
101313.402560
101312.228738
101318.991637
101320.570172
101317.387809
101323.262443
101315.859461
101318.991637
101317.387809
101314.502627
101313.402560
101317.387809
101315.859461
101313.402560
101324.207014
101312.228738
101312.628382
101322.024229
101325.000000
101324.207014
101322.024229
101312.628382
101324.798590
101314.502627
101324.207014
101312.228738
101323.262443
101323.262443
101324.798590
101314.502627
101312.628382
101323.262443
101320.570172
101313.402560
101324.798590
101324.207014
101318.991637
101322.024229
101320.570172
101315.859461
101789.319365
101789.319365
101789.319365
101789.319365
101789.319365
101789.319365
101789.319365
101789.319365
101789.319365
101789.319365
101789.319365
101789.319365
101789.319365
101789.319365
101789.319365
101789.319365
101325.000000
101325.000000
101325.000000
101325.000000
101325.000000
101325.000000
101325.000000
101325.000000
101325.000000
101325.000000
101325.000000
101325.000000
101325.000000
101325.000000
101325.000000
101325.000000
101325.000000
101325.000000
101325.000000
101325.000000
101325.000000
101325.000000
101325.000000
101325.000000
101325.000000
101325.000000
101325.000000
101325.000000
101325.000000
101325.000000
101325.000000
101325.000000
101325.000000
101325.000000
101323.613323
101324.676897
101323.656716
101324.519019
101324.519019
101323.740775
101324.347625
101323.740775
101324.007540
101323.860217
101324.007540
101324.173484
101324.676897
101323.613323
101324.978131
101323.740775
101324.347625
101324.811340
101324.913899
101323.860217
101324.173484
101323.656716
101324.173484
101324.007540
101324.913899
101324.676897
101325.000000
101323.860217
101324.913899
101323.656716
101323.860217
101324.811340
101324.811340
101325.000000
101324.978131
101324.347625
101323.613323
101323.613323
101324.173484
101324.978131
101324.676897
101324.811340
101324.519019
101324.978131
101323.740775
101323.656716
101324.007540
101324.913899
101324.347625
101324.519019
101308.629368
101321.185557
101317.298279
101313.283351
101324.741825
101315.242438
101319.321698
101309.141646
101325.000000
101311.544115
101310.134013
101308.629368
101317.298279
101319.321698
101315.242438
101322.772741
101313.283351
101311.544115
101317.298279
101315.242438
101310.134013
101315.242438
101313.283351
101310.134013
101323.983523
101308.629368
101309.141646
101321.185557
101325.000000
101323.983523
101321.185557
101309.141646
101311.544115
101324.741825
101323.983523
101308.629368
101322.772741
101322.772741
101324.741825
101311.544115
101322.772741
101309.141646
101319.321698
101310.134013
101324.741825
101323.983523
101317.298279
101321.185557
101319.321698
101313.283351
101322.015105
101324.304504
101322.108510
101323.964662
101323.964662
101323.595727
101322.289450
101322.289450
101322.863676
101322.546557
101322.863676
101323.220881
101324.304504
101322.015105
101324.952926
101322.289450
101323.595727
101324.593899
101324.814663
101322.546557
101323.220881
101322.108510
101323.220881
101322.863676
101324.814663
101324.304504
101322.546557
101325.000000
101324.814663
101322.108510
101322.546557
101324.593899
101324.593899
101324.952926
101325.000000
101323.595727
101322.015105
101322.015105
101323.220881
101324.952926
101324.304504
101324.593899
101323.964662
101324.952926
101322.289450
101322.108510
101322.863676
101324.814663
101323.595727
101323.964662
101320.132379
101323.865819
101320.284699
101323.311622
101323.311622
101322.709981
101320.579768
101320.579768
101321.516188
101320.999046
101321.516188
101322.098700
101323.865819
101324.923235
101320.132379
101320.579768
101322.709981
101324.697762
101324.337750
101320.999046
101322.098700
101320.284699
101322.098700
101321.516188
101324.697762
101323.865819
101320.999046
101325.000000
101324.697762
101320.284699
101320.999046
101324.337750
101324.337750
101324.923235
101325.000000
101322.709981
101320.132379
101320.132379
101322.098700
101324.923235
101323.865819
101324.337750
101323.311622
101324.923235
101320.579768
101320.284699
101321.516188
101324.697762
101322.709981
101323.311622
101304.420830
101320.204945
101315.318332
101310.271253
101324.675454
101312.733979
101317.861929
101305.064803
101325.000000
101308.084896
101306.312287
101304.420830
101317.861929
101315.318332
101312.733978
101322.200161
101310.271253
101308.084896
101315.318332
101312.733978
101306.312287
101310.271253
101312.733978
101306.312287
101323.722209
101304.420830
101320.204945
101305.064803
101325.000000
101323.722209
101320.204945
101305.064803
101308.084896
101324.675454
101323.722209
101304.420830
101322.200161
101322.200161
101324.675454
101308.084896
101322.200161
101305.064803
101317.861929
101306.312287
101324.675454
101320.204945
101323.722209
101315.318332
101310.271253
101317.861929
101317.913199
101323.348738
101318.134963
101322.541879
101322.541879
101321.665947
101318.564556
101318.564556
101319.927896
101319.927896
101319.174985
101320.775979
101323.348738
101324.888237
101317.913199
101318.564556
101321.665947
101324.559970
101324.035826
101319.174985
101320.775979
101318.134963
101320.775979
101319.927896
101324.559970
101323.348738
101319.174985
101325.000000
101324.559970
101318.134963
101319.174985
101324.035826
101324.035826
101324.888237
101325.000000
101321.665947
101317.913199
101317.913199
101320.775979
101324.888237
101323.348738
101324.035826
101322.541879
101324.888237
101318.564556
101318.134963
101319.927896
101324.559970
101321.665947
101322.541879
101315.299885
101322.739822
101321.635427
101315.603426
101321.635427
101320.436488
101316.191435
101316.191435
101318.057517
101318.057517
101317.026965
101319.218337
101322.739822
101324.847023
101316.191435
101315.299885
101320.436488
101324.397706
101317.026965
101323.680279
101319.218337
101315.603426
101318.057517
101319.218337
101324.397706
101322.739822
101317.026965
101325.000000
101315.603426
101324.397706
101317.026965
101323.680279
101323.680279
101324.847023
101325.000000
101320.436488
101315.299885
101315.299885
101319.218337
101324.847023
101322.739822
101323.680279
101321.635427
101316.191434
101315.603426
101324.847023
101318.057517
101324.397706
101320.436488
101321.635427
101299.509012
101319.060466
101313.007520
101306.755808
101324.597992
101309.806335
101316.158220
101300.306688
101325.000000
101304.047614
101301.851920
101299.509012
101316.158220
101313.007520
101309.806335
101306.755808
101321.531898
101304.047614
101313.007520
101309.806335
101301.851920
101306.755808
101309.806335
101301.851920
101323.417227
101299.509012
101319.060466
101300.306688
101325.000000
101323.417227
101300.306688
101319.060466
101304.047614
101324.597992
101323.417227
101299.509012
101321.531898
101321.531898
101321.531898
101304.047614
101324.597992
101300.306688
101301.851920
101316.158220
101324.597992
101319.060466
101323.417227
101313.007520
101306.755808
101316.158220
101312.228738
101322.024229
101320.570172
101312.628382
101320.570172
101318.991637
101313.402560
101313.402560
101315.859461
101315.859461
101314.502627
101317.387809
101322.024229
101324.798590
101313.402560
101312.228738
101318.991637
101324.207014
101314.502627
101323.262443
101317.387809
101315.859461
101312.628382
101317.387809
101324.207014
101322.024229
101314.502627
101325.000000
101312.628382
101324.207014
101314.502627
101323.262443
101323.262443
101324.798590
101325.000000
101318.991637
101312.228738
101312.228738
101317.387809
101323.262443
101322.024229
101324.798590
101320.570172
101313.402560
101312.628382
101315.859461
101324.798590
101324.207014
101318.991637
101320.570172
101308.629368
101321.185557
101319.321698
101319.321698
101317.298279
101309.141646
101310.134013
101310.134013
101313.283351
101313.283351
101311.544115
101315.242438
101321.185557
101324.741825
101310.134013
101308.629368
101317.298279
101323.983523
101311.544115
101322.772741
101315.242438
101313.283351
101309.141646
101323.983523
101321.185557
101315.242438
101311.544115
101309.141646
101325.000000
101311.544115
101323.983523
101322.772741
101322.772741
101324.741825
101325.000000
101308.629368
101317.298279
101308.629368
101315.242438
101322.772741
101321.185557
101324.741825
101319.321698
101310.134013
101309.141646
101313.283351
101324.741825
101323.983523
101317.298279
101319.321698
101293.811381
101317.732888
101310.327015
101302.677949
101324.508137
101306.410316
101314.181945
101294.787351
101325.000000
101299.364432
101296.677966
101293.811381
101314.181945
101310.327015
101306.410316
101302.677949
101299.364432
101320.756723
101296.677966
101310.327015
101306.410316
101302.677949
101296.677966
101306.410316
101323.063453
101317.732888
101293.811381
101294.787351
101325.000000
101323.063453
101294.787351
101317.732888
101299.364432
101324.508137
101323.063453
101293.811381
101320.756723
101320.756723
101320.756723
101299.364432
101324.508137
101294.787351
101296.677965
101314.181945
101317.732888
101324.508137
101323.063453
101310.327015
101302.677949
101314.181945
101304.420830
101320.204945
101317.861929
101317.861929
101315.318332
101306.312287
101305.064803
101306.312287
101310.271253
101310.271253
101312.733978
101308.084896
101320.204945
101306.312287
101324.675454
101304.420830
101315.318332
101323.722209
101308.084896
101322.200161
101312.733978
101310.271253
101305.064803
101320.204945
101323.722209
101312.733978
101308.084896
101305.064803
101308.084896
101325.000000
101323.722209
101322.200161
101322.200161
101324.675454
101325.000000
101304.420830
101304.420830
101315.318332
101322.200161
101312.733978
101320.204945
101324.675454
101317.861929
101306.312287
101305.064803
101310.271253
101323.722209
101324.675454
101315.318332
101317.861929
101287.234300
101316.200393
101307.232764
101297.970656
101324.404412
101302.490108
101311.900625
101288.416083
101325.000000
101290.705392
101293.958382
101287.234300
101311.900625
101307.232764
101302.490108
101297.970656
101293.958382
101319.861898
101290.705392
101297.970656
101307.232764
101302.490108
101290.705392
101322.655072
101316.200393
101302.490108
101287.234300
101288.416082
101322.655072
101325.000000
101288.416082
101316.200393
101293.958382
101324.404412
101287.234300
101322.655072
101319.861897
101319.861897
101319.861897
101293.958382
101288.416082
101324.404412
101290.705392
101311.900625
101316.200393
101324.404412
101322.655072
101307.232764
101297.970656
101311.900625
101299.509012
101319.060466
101316.158220
101316.158220
101313.007520
101301.851920
101300.306688
101301.851920
101306.755808
101306.755808
101309.806335
101304.047614
101319.060466
101301.851920
101324.597992
101313.007520
101323.417227
101299.509012
101304.047614
101321.531898
101309.806335
101306.755808
101319.060466
101300.306688
101323.417227
101304.047614
101309.806335
101304.047614
101300.306688
101325.000000
101323.417227
101321.531898
101321.531898
101324.597992
101325.000000
101299.509012
101299.509012
101313.007520
101321.531898
101309.806335
101319.060466
101324.597992
101301.851920
101316.158220
101300.306688
101306.755808
101323.417227
101324.597992
101313.007520
101316.158220
101293.811381
101317.732888
101314.181945
101296.677966
101310.327015
101314.181945
101294.787351
101296.677966
101302.677949
101302.677949
101306.410316
101317.732888
101299.364432
101296.677966
101324.508137
101310.327015
101323.063453
101293.811381
101299.364432
101306.410316
101302.677949
101320.756723
101317.732888
101294.787351
101323.063453
101299.364432
101299.364432
101306.410316
101294.787351
101325.000000
101323.063453
101320.756723
101320.756723
101324.508137
101293.811381
101293.811381
101325.000000
101320.756723
101310.327015
101306.410316
101317.732888
101324.508137
101296.677965
101302.677949
101294.787351
101314.181945
101323.063453
101324.508137
101310.327015
101314.181945
101279.677985
101314.439732
101303.677823
101292.562515
101297.986237
101324.285245
101309.279649
101281.096224
101325.000000
101283.843587
101287.747449
101309.279649
101279.677985
101303.677823
101297.986237
101287.747449
101292.562515
101318.833845
101283.843587
101292.562515
101283.843587
101303.677823
101314.439732
101297.986237
101322.185890
101279.677985
101297.986237
101281.096223
101322.185890
101325.000000
101281.096223
101314.439732
101287.747449
101324.285245
101279.677985
101322.185890
101318.833845
101318.833845
101318.833845
101287.747449
101281.096223
101283.843587
101324.285245
101314.439732
101309.279649
101324.285245
101322.185890
101292.562515
101303.677823
101309.279649
101287.234300
101316.200393
101311.900625
101290.705392
101307.232764
101311.900625
101288.416082
101290.705392
101297.970656
101297.970656
101302.490108
101316.200393
101290.705392
101293.958382
101324.404412
101322.655072
101307.232764
101293.958382
101287.234300
101297.970656
101302.490108
101316.200393
101319.861898
101293.958382
101322.655072
101293.958382
101288.416082
101302.490108
101288.416082
101319.861897
101319.861897
101325.000000
101322.655072
101324.404412
101287.234300
101287.234300
101319.861897
101325.000000
101307.232764
101316.200393
101302.490108
101324.404412
101290.705392
101297.970656
101288.416082
101311.900625
101322.655072
101324.404412
101307.232764
101311.900625
101271.022798
101312.423028
101299.605907
101286.367899
101292.827394
101324.148747
101306.277519
101272.711879
101325.000000
101306.277519
101299.605907
101275.983909
101280.633295
101271.022798
101280.633295
101292.827394
101286.367899
101275.983909
101286.367899
101317.656289
101312.423028
101275.983909
101321.648476
101299.605907
101292.827394
101271.022798
101292.827394
101321.648476
101272.711879
101325.000000
101272.711879
101312.423028
101280.633295
101324.148747
101317.656289
101271.022798
101317.656289
101321.648476
101280.633295
101317.656289
101272.711879
101275.983909
101324.148747
101312.423028
101306.277519
101324.148747
101286.367899
101321.648476
101299.605907
101306.277519
101279.677985
101314.439732
101309.279649
101283.843587
101303.677823
101309.279649
101281.096223
101292.562515
101283.843587
101297.986237
101292.562515
101314.439732
101283.843587
101322.185890
101324.285245
101303.677823
101287.747449
101287.747449
101279.677985
101292.562515
101297.986237
101287.747449
101314.439732
101287.747449
101322.185890
101318.833845
101281.096223
101281.096223
101297.986237
101318.833845
101318.833845
101322.185890
101325.000000
101324.285245
101318.833845
101279.677985
101279.677985
101325.000000
101314.439732
101303.677823
101297.986237
101283.843587
101324.285245
101292.562515
101281.096223
101309.279649
101322.185890
101324.285245
101303.677823
101309.279649
101261.221365
101310.139243
101294.994729
101279.352901
101286.985342
101323.994173
101302.877804
101263.217157
101325.000000
101302.877804
101294.994729
101272.576981
101286.985342
101279.352901
101267.083338
101261.221365
101272.576981
101267.083338
101279.352901
101310.139243
101267.083338
101316.322783
101321.039891
101261.221365
101294.994729
101286.985342
101286.985342
101321.039891
101263.217157
101325.000000
101263.217157
101310.139243
101272.576981
101316.322783
101323.994173
101261.221365
101272.576981
101316.322783
101321.039891
101316.322783
101267.083338
101263.217157
101310.139243
101323.994173
101302.877804
101279.352901
101323.994173
101321.039891
101294.994729
101302.877803
101271.022798
101306.277519
101312.423028
101275.983909
101299.605907
101306.277519
101272.711879
101286.367899
101292.827394
101275.983909
101312.423028
101286.367899
101275.983909
101321.648476
101299.605907
101324.148747
101280.633295
101280.633295
101271.022798
101280.633295
101286.367899
101292.827394
101312.423028
101280.633295