# vtk DataFile Version 3.0
Time Step 128, Physical Time = 0.001280s, Residual = 2.78e-03
ASCII
DATASET UNSTRUCTURED_GRID
POINTS 5000 float
0.318712 0.385257 0.000000
-0.318712 0.385257 0.000000
-0.318712 -0.385257 0.000000
0.318712 -0.385257 0.000000
0.093691 0.491144 0.000000
-0.093691 0.491144 0.000000
-0.093691 -0.491144 0.000000
0.093691 -0.491144 0.000000
0.404508 0.293893 0.000000
-0.404508 0.293893 0.000000
-0.404508 -0.293893 0.000000
0.404508 -0.293893 0.000000
0.438153 0.240877 0.000000
-0.438153 0.240877 0.000000
-0.438153 -0.240877 0.000000
0.438153 -0.240877 0.000000
0.500000 0.000000 0.000000
-0.500000 -0.000000 0.000000
0.364484 0.342274 0.000000
-0.364484 0.342274 0.000000
-0.364484 -0.342274 0.000000
0.364484 -0.342274 0.000000
0.496057 0.062667 0.000000
-0.496057 0.062667 0.000000
-0.496057 -0.062667 0.000000
0.496057 -0.062667 0.000000
0.212890 0.452414 0.000000
-0.212890 0.452414 0.000000
-0.212890 -0.452414 0.000000
0.212890 -0.452414 0.000000
0.154508 0.475528 0.000000
-0.154508 0.475528 0.000000
-0.154508 -0.475528 0.000000
0.154508 -0.475528 0.000000
0.267913 0.422164 0.000000
-0.267913 0.422164 0.000000
-0.267913 -0.422164 0.000000
0.267913 -0.422164 0.000000
0.031395 0.499013 0.000000
-0.031395 0.499013 0.000000
-0.031395 -0.499013 0.000000
0.031395 -0.499013 0.000000
0.464888 0.184062 0.000000
-0.464888 0.184062 0.000000
-0.464888 -0.184062 0.000000
0.464888 -0.184062 0.000000
0.484292 0.124345 0.000000
-0.484292 0.124345 0.000000
-0.484292 -0.124345 0.000000
0.484292 -0.124345 0.000000
-0.031454 0.499951 0.000000
0.438977 0.241329 0.000000
-0.268417 0.422957 0.000000
0.365169 0.342917 0.000000
-0.496990 -0.062784 0.000000
0.319311 -0.385981 0.000000
0.405269 0.294445 0.000000
-0.093867 0.492067 0.000000
0.500940 -0.000000 0.000000
-0.213290 0.453264 0.000000
-0.154799 0.476422 0.000000
0.031454 0.499951 0.000000
0.465762 0.184408 0.000000
0.319311 0.385981 0.000000
0.365169 -0.342917 0.000000
0.405269 -0.294445 0.000000
-0.365169 0.342917 0.000000
-0.319311 0.385981 0.000000
0.268417 0.422957 0.000000
0.213290 0.453264 0.000000
-0.319311 -0.385981 0.000000
0.154799 -0.476422 0.000000
-0.485202 -0.124579 0.000000
0.154799 0.476422 0.000000
0.268417 -0.422957 0.000000
0.093867 0.492067 0.000000
-0.031454 -0.499951 0.000000
-0.500940 0.000000 0.000000
0.438977 -0.241329 0.000000
-0.438977 -0.241329 0.000000
0.093867 -0.492067 0.000000
-0.485202 0.124579 0.000000
0.485202 0.124579 0.000000
-0.496990 0.062784 0.000000
0.213290 -0.453264 0.000000
0.031454 -0.499951 0.000000
0.496990 -0.062784 0.000000
0.465762 -0.184408 0.000000
-0.465762 -0.184408 0.000000
-0.213290 -0.453264 0.000000
-0.093867 -0.492067 0.000000
-0.405269 -0.294445 0.000000
0.496990 0.062784 0.000000
0.485202 -0.124579 0.000000
-0.154799 -0.476422 0.000000
-0.365169 -0.342917 0.000000
-0.465762 0.184408 0.000000
-0.438977 0.241329 0.000000
-0.405269 0.294445 0.000000
-0.268417 -0.422957 0.000000
-0.031523 0.501039 0.000000
0.439932 0.241854 0.000000
-0.269001 0.423877 0.000000
0.365964 0.343663 0.000000
-0.498071 -0.062921 0.000000
0.320005 -0.386820 0.000000
0.406150 0.295085 0.000000
-0.094071 0.493137 0.000000
0.502029 -0.000000 0.000000
-0.213754 0.454250 0.000000
-0.155136 0.477458 0.000000
0.031523 0.501039 0.000000
0.466775 0.184809 0.000000
0.365964 -0.343663 0.000000
0.406150 -0.295085 0.000000
0.320005 0.386820 0.000000
-0.365964 0.343663 0.000000
-0.320005 0.386820 0.000000
0.269001 0.423877 0.000000
0.213754 0.454250 0.000000
-0.320005 -0.386820 0.000000
0.155136 -0.477458 0.000000
-0.486257 -0.124850 0.000000
0.155136 0.477458 0.000000
0.269001 -0.423877 0.000000
0.094071 0.493137 0.000000
-0.031523 -0.501039 0.000000
-0.502029 0.000000 0.000000
0.439932 -0.241854 0.000000
-0.439932 -0.241854 0.000000
0.094071 -0.493137 0.000000
-0.486257 0.124850 0.000000
0.486257 0.124850 0.000000
-0.498071 0.062921 0.000000
0.213754 -0.454250 0.000000
0.031523 -0.501039 0.000000
0.466775 -0.184809 0.000000
0.498071 -0.062921 0.000000
-0.466775 -0.184809 0.000000
-0.213754 -0.454250 0.000000
-0.094071 -0.493137 0.000000
-0.406150 -0.295085 0.000000
0.498071 0.062921 0.000000
-0.155136 -0.477458 0.000000
0.486257 -0.124850 0.000000
-0.365964 -0.343663 0.000000
-0.466775 0.184809 0.000000
-0.439932 0.241854 0.000000
-0.406150 0.295085 0.000000
-0.269001 -0.423877 0.000000
-0.031604 0.502329 0.000000
0.441064 0.242477 0.000000
-0.269693 0.424969 0.000000
0.366906 0.344547 0.000000
-0.499353 -0.063083 0.000000
0.320829 -0.387816 0.000000
0.407196 0.295845 0.000000
-0.094313 0.494407 0.000000
0.503322 -0.000000 0.000000
-0.214304 0.455419 0.000000
-0.155535 0.478688 0.000000
0.031604 0.502329 0.000000
0.467977 0.185285 0.000000
0.366906 -0.344547 0.000000
0.407196 -0.295845 0.000000
0.320829 0.387816 0.000000
0.269693 0.424969 0.000000
-0.366906 0.344547 0.000000
-0.320829 0.387816 0.000000
0.214304 0.455419 0.000000
-0.320829 -0.387816 0.000000
0.155535 -0.478688 0.000000
-0.487509 -0.125171 0.000000
0.155535 0.478688 0.000000
0.269693 -0.424969 0.000000
-0.031604 -0.502329 0.000000
0.094313 0.494407 0.000000
-0.503322 0.000000 0.000000
0.441064 -0.242477 0.000000
-0.441064 -0.242477 0.000000
-0.487509 0.125171 0.000000
0.094313 -0.494407 0.000000
0.487509 0.125171 0.000000
-0.499353 0.063083 0.000000
0.214304 -0.455419 0.000000
0.031604 -0.502329 0.000000
0.467977 -0.185285 0.000000
0.499353 -0.063083 0.000000
-0.467977 -0.185285 0.000000
-0.214304 -0.455419 0.000000
-0.094313 -0.494407 0.000000
-0.407196 -0.295845 0.000000
0.499353 0.063083 0.000000
-0.155535 -0.478688 0.000000
0.487509 -0.125171 0.000000
-0.467977 0.185285 0.000000
-0.366906 -0.344547 0.000000
-0.441064 0.242477 0.000000
-0.407196 0.295845 0.000000
-0.269693 -0.424969 0.000000
-0.031700 0.503862 0.000000
0.442411 0.243217 0.000000
-0.270517 0.426266 0.000000
0.368026 0.345599 0.000000
-0.500877 -0.063276 0.000000
0.321809 -0.389000 0.000000
0.408439 0.296748 0.000000
-0.094601 0.495916 0.000000
0.504858 -0.000000 0.000000
-0.214958 0.456810 0.000000
-0.156010 0.480149 0.000000
0.031700 0.503862 0.000000
0.469405 0.185851 0.000000
0.368026 -0.345599 0.000000
0.408439 -0.296748 0.000000
0.321809 0.389000 0.000000
0.270517 0.426266 0.000000
-0.368026 0.345599 0.000000
-0.321809 0.389000 0.000000
0.214958 0.456810 0.000000
-0.321809 -0.389000 0.000000
0.156010 -0.480149 0.000000
0.270517 -0.426266 0.000000
-0.488997 -0.125553 0.000000
0.156010 0.480149 0.000000
-0.031700 -0.503862 0.000000
0.094601 0.495916 0.000000
-0.504858 0.000000 0.000000
0.442411 -0.243217 0.000000
-0.442411 -0.243217 0.000000
-0.488997 0.125553 0.000000
0.094601 -0.495916 0.000000
0.488997 0.125553 0.000000
-0.500877 0.063276 0.000000
0.214958 -0.456810 0.000000
0.031700 -0.503862 0.000000
0.469405 -0.185851 0.000000
0.500877 -0.063276 0.000000
-0.469405 -0.185851 0.000000
-0.214958 -0.456810 0.000000
-0.094601 -0.495916 0.000000
-0.408439 -0.296748 0.000000
-0.469405 0.185851 0.000000
0.500877 0.063276 0.000000
-0.156010 -0.480149 0.000000
0.488997 -0.125553 0.000000
-0.368026 -0.345599 0.000000
-0.442411 0.243217 0.000000
-0.408439 0.296748 0.000000
-0.270517 -0.426266 0.000000
-0.031815 0.505686 0.000000
0.444012 0.244098 0.000000
-0.271496 0.427809 0.000000
0.369358 0.346850 0.000000
-0.502691 -0.063505 0.000000
0.322974 -0.390408 0.000000
0.409918 0.297823 0.000000
-0.094943 0.497711 0.000000
0.506686 -0.000000 0.000000
-0.215736 0.458463 0.000000
-0.156575 0.481887 0.000000
0.031815 0.505686 0.000000
0.369358 -0.346850 0.000000
0.409918 -0.297823 0.000000
0.471105 0.186524 0.000000
0.322974 0.390408 0.000000
0.271496 0.427809 0.000000
-0.369358 0.346850 0.000000
-0.322974 0.390408 0.000000
0.215736 0.458463 0.000000
0.156575 -0.481887 0.000000
-0.322974 -0.390408 0.000000
0.271496 -0.427809 0.000000
-0.490768 -0.126008 0.000000
0.156575 0.481887 0.000000
-0.031815 -0.505686 0.000000
0.094943 0.497711 0.000000
-0.506686 0.000000 0.000000
0.444012 -0.244098 0.000000
-0.490768 0.126008 0.000000
-0.444012 -0.244098 0.000000
0.094943 -0.497711 0.000000
0.490768 0.126008 0.000000
-0.502691 0.063505 0.000000
0.215736 -0.458463 0.000000
0.031815 -0.505686 0.000000
0.471105 -0.186524 0.000000
-0.471105 -0.186524 0.000000
0.502691 -0.063505 0.000000
-0.215736 -0.458463 0.000000
-0.094943 -0.497711 0.000000
-0.409918 -0.297823 0.000000
-0.471105 0.186524 0.000000
0.502691 0.063505 0.000000
-0.156575 -0.481887 0.000000
0.490768 -0.126008 0.000000
-0.369358 -0.346850 0.000000
-0.444012 0.244098 0.000000
-0.409918 0.297823 0.000000
-0.271496 -0.427809 0.000000
-0.031952 0.507855 0.000000
0.445917 0.245145 0.000000
-0.272661 0.429644 0.000000
0.370943 0.348338 0.000000
-0.504847 -0.063777 0.000000
0.324359 -0.392083 0.000000
0.411676 0.299100 0.000000
-0.095351 0.499846 0.000000
0.508859 -0.000000 0.000000
-0.216662 0.460430 0.000000
-0.157246 0.483954 0.000000
0.031952 0.507855 0.000000
0.370943 -0.348338 0.000000
0.411676 -0.299100 0.000000
0.324359 0.392083 0.000000
0.473126 0.187324 0.000000
0.272661 0.429644 0.000000
-0.370943 0.348338 0.000000
-0.324359 0.392083 0.000000
0.216662 0.460430 0.000000
0.157246 -0.483954 0.000000
-0.324359 -0.392083 0.000000
0.272661 -0.429644 0.000000
0.157246 0.483954 0.000000
-0.492873 -0.126548 0.000000
-0.031952 -0.507855 0.000000
0.095351 0.499846 0.000000
0.445917 -0.245145 0.000000
-0.508859 0.000000 0.000000
-0.492873 0.126548 0.000000
-0.445917 -0.245145 0.000000
0.095351 -0.499846 0.000000
-0.504847 0.063777 0.000000
0.216662 -0.460430 0.000000
0.492873 0.126548 0.000000
0.031952 -0.507855 0.000000
0.473126 -0.187324 0.000000
-0.473126 -0.187324 0.000000
0.504847 -0.063777 0.000000
-0.216662 -0.460430 0.000000
-0.095351 -0.499846 0.000000
-0.473126 0.187324 0.000000
-0.411676 -0.299100 0.000000
-0.157246 -0.483954 0.000000
0.504847 0.063777 0.000000
0.492873 -0.126548 0.000000
-0.370943 -0.348338 0.000000
-0.445917 0.245145 0.000000
-0.411676 0.299100 0.000000
-0.272661 -0.429644 0.000000
0.318712 0.385257 0.100000
-0.318712 0.385257 0.100000
[...]
POINT_DATA 5000
SCALARS pressure float 1
LOOKUP_TABLE default
101786.347630
101786.347630
101786.347630
101786.347630
101786.347630
101786.347630
101786.347630
101786.347630
101786.347630
101786.347630
101786.347630
101786.347630
101786.347630
101786.347630
101786.347630
101786.347630
101325.000000
101325.000000
101325.000000
101325.000000
101325.000000
101325.000000
101325.000000
101325.000000
101325.000000
101325.000000
101325.000000
101325.000000
101325.000000
101325.000000
101325.000000
101325.000000
101325.000000
101325.000000
101325.000000
101325.000000
101325.000000
101325.000000
101325.000000
101325.000000
101325.000000
101325.000000
101325.000000
101325.000000
101325.000000
101325.000000
101325.000000
101325.000000
101325.000000
101325.000000
101323.622198
101324.678965
101324.013892
101324.351800
101324.978271
101324.178774
101324.522097
101323.665313
101325.000000
101323.867512
101323.748834
101323.622198
101324.812547
101324.178774
101324.351800
101324.522097
101324.351800
101324.178774
101324.013892
101323.867512
101324.178774
101323.748834
101324.914450
101323.748834
101324.013892
101323.665313
101323.622198
101325.000000
101324.678965
101324.678965
101323.665313
101324.914450
101324.914450
101324.978271
101323.867512
101323.622198
101324.978271
101324.812547
101324.812547
101323.867512
101323.665313
101324.522097
101324.978271
101324.914450
101323.748834
101324.351800
101324.812547
101324.678965
101324.522097
101324.013892
101322.034209
101324.308955
101322.877349
101323.604715
101324.953228
101323.232268
101323.971288
101322.127016
101325.000000
101322.562260
101322.306798
101322.034209
101324.596498
101323.604715
101323.971288
101323.232268
101323.604715
101323.232268
101322.877349
101322.562260
101323.232268
101322.306798
101324.815850
101322.306798
101322.877349
101322.127016
101322.034209
101325.000000
101324.308955
101324.308955
101322.127016
101324.815850
101324.815850
101324.953228
101322.562260
101322.034209
101324.596498
101324.953228
101324.596498
101322.562260
101322.127016
101323.971288
101324.953228
101322.306798
101324.815850
101323.604715
101324.596498
101324.308955
101323.971288
101322.877349
101320.163533
101323.873078
101321.538485
101322.724638
101324.923726
101322.117269
101323.322428
101320.314878
101325.000000
101321.024653
101320.608059
101320.163533
101324.341989
101322.724638
101323.322428
101322.117269
101321.538485
101322.724638
101322.117269
101321.024653
101322.117269
101320.608059
101324.699697
101320.608059
101321.538485
101320.163533
101320.314878
101325.000000
101323.873078
101323.873078
101324.699697
101320.314878
101324.699697
101324.923726
101321.024653
101320.163533
101324.341989
101324.923726
101324.341989
101321.024653
101320.314878
101323.322428
101324.923726
101320.608059
101324.699697
101324.341989
101322.724638
101323.873078
101323.322428
101321.538485
101317.958556
101323.359307
101319.960358
101321.687285
101324.888952
101320.803013
101322.557612
101318.178901
101325.000000
101319.212267
101318.605744
101317.958556
101324.041997
101321.687285
101322.557612
101320.803013
101319.960358
101321.687285
101320.803013
101319.212267
101320.803013
101318.605744
101319.960358
101324.562786
101318.605744
101317.958556
101318.178901
101325.000000
101323.359307
101323.359307
101324.562786
101318.178901
101324.562786
101324.888952
101319.212267
101317.958556
101324.041997
101324.888952
101324.041997
101319.212267
101318.178901
101322.557612
101324.041997
101324.888952
101318.605744
101324.562786
101321.687285
101323.359307
101322.557612
101319.960358
101315.361968
101322.754288
101318.101950
101320.465695
101324.848002
101319.255341
101321.656961
101315.663566
101325.000000
101317.077994
101316.247811
101315.361968
101320.465695
101321.656961
101323.688726
101319.255341
101318.101950
101320.465695
101319.255341
101317.077994
101316.247811
101319.255341
101318.101950
101324.401560
101316.247811
101315.361968
101315.663566
101325.000000
101322.754288
101324.401560
101322.754288
101315.663566
101324.401560
101324.848002
101317.077994
101315.361968
101323.688726
101323.688726
101324.848002
101317.077994
101315.663566
101321.656961
101323.688726
101324.848002
101316.247811
101324.401560
101320.465695
101322.754288
101321.656961
101318.101950
101312.310476
101322.043274
101315.917963
101319.030092
101324.799879
101317.436528
101320.598524
101312.707563
101325.000000
101314.569812
101313.476786
101312.310476
101319.030092
101320.598524
101317.436528
101323.273564
101315.917963
101319.030092
101317.436528
101314.569812
101313.476786
101317.436528
101315.917963
101313.476786
101324.212089
101312.310476
101312.707563
101322.043274
101325.000000
101324.212089
101322.043274
101312.707563
101324.799879
101314.569812
101324.212089
101312.310476
101323.273564
101323.273564
101324.799879
101314.569812
101312.707563
101323.273564
101320.598524
101313.476786
101324.799879
101324.212089
101319.030092
101322.043274
101320.598524
101315.917963
101786.347630
101786.347630
101786.347630
101786.347630
101786.347630
101786.347630
101786.347630
101786.347630
101786.347630
101786.347630
101786.347630
101786.347630
101786.347630
101786.347630
101786.347630
101786.347630
101325.000000
101325.000000
101325.000000
101325.000000
101325.000000
101325.000000
101325.000000
101325.000000
101325.000000
101325.000000
101325.000000
101325.000000
101325.000000
101325.000000
101325.000000
101325.000000
101325.000000
101325.000000
101325.000000
101325.000000
101325.000000
101325.000000
101325.000000
101325.000000
101325.000000
101325.000000
101325.000000
101325.000000
101325.000000
101325.000000
101325.000000
101325.000000
101325.000000
101325.000000
101323.622198
101324.678965
101323.665313
101324.522097
101324.522097
101323.748834
101324.351800
101323.748834
101324.013892
101323.867512
101324.013892
101324.178774
101324.678965
101323.622198
101324.978271
101323.748834
101324.351800
101324.812547
101324.914450
101323.867512
101324.178774
101323.665313
101324.178774
101324.013892
101324.914450
101324.678965
101325.000000
101323.867512
101324.914450
101323.665313
101323.867512
101324.812547
101324.812547
101325.000000
101324.978271
101324.351800
101323.622198
101323.622198
101324.178774
101324.978271
101324.678965
101324.812547
101324.522097
101324.978271
101323.748834
101323.665313
101324.013892
101324.914450
101324.351800
101324.522097
101308.734143
101321.209970
101317.347572
101313.358340
101324.743478
101315.304888
101319.358040
101309.243142
101325.000000
101311.630236
101310.229158
101308.734143
101317.347572
101319.358040
101315.304888
101322.786996
101313.358340
101311.630236
101317.347572
101315.304888
101310.229158
101315.304888
101313.358340
101310.229158
101323.990029
101308.734143
101309.243142
101321.209970
101325.000000
101323.990029
101321.209970
101309.243142
101311.630236
101324.743478
101323.990029
101308.734143
101322.786996
101322.786996
101324.743478
101311.630236
101322.786996
101309.243142
101319.358040
101310.229158
101324.743478
101323.990029
101317.347572
101321.209970
101319.358040
101313.358340
101322.034209
101324.308955
101322.127016
101323.971288
101323.971288
101323.604715
101322.306798
101322.306798
101322.877349
101322.562260
101322.877349
101323.232268
101324.308955
101322.034209
101324.953228
101322.306798
101323.604715
101324.596498
101324.815850
101322.562260
101323.232268
101322.127016
101323.232268
101322.877349
101324.815850
101324.308955
101322.562260
101325.000000
101324.815850
101322.127016
101322.562260
101324.596498
101324.596498
101324.953228
101325.000000
101323.604715
101322.034209
101322.034209
101323.232268
101324.953228
101324.308955
101324.596498
101323.971288
101324.953228
101322.306798
101322.127016
101322.877349
101324.815850
101323.604715
101323.971288
101320.163533
101323.873078
101320.314878
101323.322428
101323.322428
101322.724638
101320.608059
101320.608059
101321.538485
101321.024653
101321.538485
101322.117269
101323.873078
101324.923726
101320.163533
101320.608059
101322.724638
101324.699697
101324.341989
101321.024653
101322.117269
101320.314878
101322.117269
101321.538485
101324.699697
101323.873078
101321.024653
101325.000000
101324.699697
101320.314878
101321.024653
101324.341989
101324.341989
101324.923726
101325.000000
101322.724638
101320.163533
101320.163533
101322.117269
101324.923726
101323.873078
101324.341989
101323.322428
101324.923726
101320.608059
101320.314878
101321.538485
101324.699697
101322.724638
101323.322428
101304.552541
101320.235634
101315.380297
101310.365520
101324.677531
101312.812483
101317.907614
101305.192393
101325.000000
101308.193156
101306.431892
101304.552541
101317.907614
101315.380297
101312.812483
101322.218080
101310.365519
101308.193156
101315.380297
101312.812483
101306.431892
101310.365519
101312.812483
101306.431892
101323.730387
101304.552541
101320.235634
101305.192393
101325.000000
101323.730387
101320.235634
101305.192393
101308.193156
101324.677531
101323.730387
101304.552541
101322.218080
101322.218080
101324.677531
101308.193156
101322.218080
101305.192393
101317.907614
101306.431892
101324.677531
101320.235634
101323.730387
101315.380297
101310.365519
101317.907614
101317.958556
101323.359307
101318.178901
101322.557612
101322.557612
101321.687285
101318.605744
101318.605744
101319.960358
101319.960358
101319.212267
101320.803013
101323.359307
101324.888952
101317.958556
101318.605744
101321.687285
101324.562786
101324.041997
101319.212267
101320.803013
101318.178901
101320.803013
101319.960358
101324.562786
101323.359307
101319.212267
101325.000000
101324.562786
101318.178901
101319.212267
101324.041997
101324.041997
101324.888952
101325.000000
101321.687285
101317.958556
101317.958556
101320.803013
101324.888952
101323.359307
101324.041997
101322.557612
101324.888952
101318.605744
101318.178901
101319.960358
101324.562786
101321.687285
101322.557612
101315.361968
101322.754288
101321.656961
101315.663566
101321.656961
101320.465695
101316.247811
101316.247811
101318.101950
101318.101950
101317.077994
101319.255341
101322.754288
101324.848002
101316.247811
101315.361968
101320.465695
101324.401560
101317.077994
101323.688726
101319.255341
101315.663566
101318.101950
101319.255341
101324.401560
101322.754288
101317.077994
101325.000000
101315.663566
101324.401560
101317.077994
101323.688726
101323.688726
101324.848002
101325.000000
101320.465695
101315.361968
101315.361968
101319.255341
101324.848002
101322.754288
101323.688726
101321.656961
101316.247811
101315.663566
101324.848002
101318.101950
101324.401560
101320.465695
101321.656961
101299.672159
101319.098480
101313.084274
101306.872574
101324.600565
101309.903578
101316.214809
101300.464730
101325.000000
101304.181714
101302.000072
101299.672159
101316.214809
101313.084274
101309.903578
101306.872574
101321.554094
101304.181714
101313.084274
101309.903578
101302.000072
101306.872574
101309.903578
101302.000072
101323.427357
101299.672159
101319.098480
101300.464730
101325.000000
101323.427357
101300.464730
101319.098480
101304.181714
101324.600565
101323.427357
101299.672159
101321.554094
101321.554094
101321.554094
101304.181714
101324.600565
101300.464730
101302.000072
101316.214809
101324.600565
101319.098480
101323.427357
101313.084274
101306.872574
101316.214809
101312.310476
101322.043274
101320.598524
101312.707563
101320.598524
101319.030092
101313.476786
101313.476786
101315.917963
101315.917963
101314.569812
101317.436528
101322.043274
101324.799879
101313.476786
101312.310476
101319.030092
101324.212089
101314.569812
101323.273564
101317.436528
101315.917963
101312.707563
101317.436528
101324.212089
101322.043274
101314.569812
101325.000000
101312.707563
101324.212089
101314.569812
101323.273564
101323.273564
101324.799879
101325.000000
101319.030092
101312.310476
101312.310476
101317.436528
101323.273564
101322.043274
101324.799879
101320.598524
101313.476786
101312.707563
101315.917963
101324.799879
101324.212089
101319.030092
101320.598524
101308.734143
101321.209970
101319.358040
101319.358040
101317.347572
101309.243142
101310.229158
101310.229158
101313.358340
101313.358340
101311.630236
101315.304888
101321.209970
101324.743478
101310.229158
101308.734143
101317.347572
101323.990029
101311.630236
101322.786996
101315.304888
101313.358340
101309.243142
101323.990029
101321.209970
101315.304888
101311.630236
101309.243142
101325.000000
101311.630236
101323.990029
101322.786996
101322.786996
101324.743478
101325.000000
101308.734143
101317.347572
101308.734143
101315.304888
101322.786996
101321.209970
101324.743478
101319.358040
101310.229158
101309.243142
101313.358340
101324.743478
101323.990029
101317.347572
101319.358040
101294.010995
101317.779399
101310.420925
101302.820814
101324.511285
101306.529294
101314.251183
101294.980718
101325.000000
101299.528504
101296.859232
101294.010995
101314.251183
101310.420925
101306.529294
101302.820814
101299.528504
101320.783881
101296.859232
101310.420925
101306.529294
101302.820814
101296.859232
101306.529294
101323.075847
101317.779399
101294.010995
101294.980718
101325.000000
101323.075847
101294.980718
101317.779399
101299.528504
101324.511285
101323.075847
101294.010995
101320.783881
101320.783881
101320.783881
101299.528504
101324.511285
101294.980717
101296.859232
101314.251183
101317.779399
101324.511285
101323.075847
101310.420925
101302.820814
101314.251183
101304.552541
101320.235634
101317.907614
101317.907614
101315.380297
101306.431892
101305.192393
101306.431892
101310.365519
101310.365519
101312.812483
101308.193156
101320.235634
101306.431892
101324.677531
101304.552541
101315.380297
101323.730387
101308.193156
101322.218080
101312.812483
101310.365519
101305.192393
101320.235634
101323.730387
101312.812483
101308.193156
101305.192393
101308.193156
101325.000000
101323.730387
101322.218080
101322.218080
101324.677531
101325.000000
101304.552541
101304.552541
101315.380297
101322.218080
101312.812483
101320.235634
101324.677531
101317.907614
101306.431892
101305.192393
101310.365519
101323.730387
101324.677531
101315.380297
101317.907614
101287.476008
101316.256712
101307.346478
101298.143649
101324.408224
101302.634176
101311.984464
101288.650227
101325.000000
101290.924884
101294.157055
101287.476008
101311.984464
101307.346478
101302.634176
101298.143649
101294.157055
101319.894782
101290.924884
101298.143649
101307.346478
101302.634176
101290.924884
101322.670080
101316.256712
101302.634176
101287.476008
101288.650227
101322.670080
101325.000000
101288.650227
101316.256712
101294.157055
101324.408224
101287.476008
101322.670080
101319.894782
101319.894782
101319.894782
101294.157055
101288.650227
101324.408224
101290.924884
101311.984464
101316.256712
101324.408224
101322.670080
101307.346478
101298.143649
101311.984464
101299.672159
101319.098480
101316.214809
101316.214809
101313.084274
101302.000072
101300.464730
101302.000072
101306.872574
101306.872574
101309.903578
101304.181714
101319.098480
101302.000072
101324.600565
101313.084274
101323.427357
101299.672159
101304.181714
101321.554094
101309.903578
101306.872574
101319.098480
101300.464730
101323.427357
101304.181714
101309.903578
101304.181714
101300.464730
101325.000000
101323.427357
101321.554094
101321.554094
101324.600565
101325.000000
101299.672159
101299.672159
101313.084274
101321.554094
101309.903578
101319.098480
101324.600565
101302.000072
101316.214809
101300.464730
101306.872574
101323.427357
101324.600565
101313.084274
101316.214809
101294.010995
101317.779399
101314.251183
101296.859232
101310.420925
101314.251183
101294.980718
101296.859232
101302.820814
101302.820814
101306.529294
101317.779399
101299.528504
101296.859232
101324.511285
101310.420925
101323.075847
101294.010995
101299.528504
101306.529293
101302.820814
101320.783881
101317.779399
101294.980718
101323.075847
101299.528504
101299.528504
101306.529293
101294.980718
101325.000000
101323.075847
101320.783881
101320.783881
101324.511285
101294.010995
101294.010995
101325.000000
101320.783881
101310.420925
101306.529293
101317.779399
101324.511285
101296.859232
101302.820814
101294.980717
101314.251183
101323.075847
101324.511285
101310.420925
101314.251183
101279.968055
101314.507320
101303.814289
101292.770122
101298.159131
101324.289819
101309.380262
101281.377216
101325.000000
101284.106996
101287.985873
101309.380262
101279.968055
101303.814289
101298.159131
101287.985873
101292.770122
101318.873310
101284.106996
101292.770121
101284.106996
101303.814289
101314.507320
101298.159131
101322.203901
101279.968055
101298.159131
101281.377216
101322.203901
101325.000000
101281.377216
101314.507320
101287.985873
101324.289819
101279.968055
101322.203901
101318.873310
101318.873310
101318.873310
101287.985873
101281.377216
101284.106996
101324.289819
101314.507320
101309.380262
101324.289819
101322.203901
101292.770121
101303.814289
101309.380262
101287.476008
101316.256712
101311.984464
101290.924884
101307.346478
101311.984464
101288.650227
101290.924884
101298.143649
101298.143649
101302.634176
101316.256712
101290.924884
101294.157055
101324.408224
101322.670080
101307.346478
101294.157055
101287.476008
101298.143649
101302.634176
101316.256712
101319.894782
101294.157055
101322.670080
101294.157055
101288.650227
101302.634176
101288.650227
101319.894782
101319.894782
101325.000000
101322.670080
101324.408224
101287.476008
101287.476008
101319.894782
101325.000000
101307.346478
101316.256712
101302.634176
101324.408224
101290.924884
101298.143649
101288.650227
101311.984464
101322.670080
101324.408224
101307.346478
101311.984464
101271.368263
101312.503523
101299.768435
101286.615152
101293.033305
101324.154195
101306.397347
101273.046533
101325.000000
101306.397347
101299.768435
101276.297622
101280.917251
101271.368263
101280.917251
101293.033305
101286.615152
101276.297622
101286.615152
101317.703290
101312.503523
101276.297622
101321.669927
101299.768435
101293.033305
101271.368263
101293.033305
101321.669927
101273.046533
101325.000000
101273.046533
101312.503523
101280.917251
101324.154195
101317.703290
101271.368263
101317.703290
101321.669927
101280.917251
101317.703290
101273.046533
101276.297622
101324.154195
101312.503523
101306.397347
101324.154195
101286.615152
101321.669927
101299.768435
101306.397347
101279.968055
101314.507320
101309.380262
101284.106996
101303.814289
101309.380262
101281.377216
101292.770122
101284.106996
101298.159131
101292.770122
101314.507320
101284.106996
101322.203901
101324.289819
101303.814289
101287.985873
101287.985873
101279.968055
101292.770121
101298.159131
101287.985873
101314.507320
101287.985873
101322.203901
101318.873310
101281.377216
101281.377216
101298.159131
101318.873310
101318.873310
101322.203901
101325.000000
101324.289819
101318.873310
101279.968055
101279.968055
101325.000000
101314.507320
101303.814289
101298.159131
101284.106996
101324.289819
101292.770121
101281.377216
101309.380262
101322.203901
101324.289819
101303.814289
101309.380262
101261.629561
101310.234354
101295.186769
101279.645052
101287.228643
101324.000610
101303.019390
101263.612580
101325.000000
101303.019390
101295.186769
101272.912499
101287.228643
101279.645052
101267.454016
101261.629561
101272.912499
101267.454016
101279.645052
101310.234354
101267.454016
101316.378319
101321.065237
101261.629561
101295.186769
101287.228643
101287.228643
101321.065237
101263.612579
101325.000000
101263.612579
101310.234354
101272.912499
101316.378319
101324.000610
101261.629561
101272.912499
101316.378319
101321.065237
101316.378319
101267.454016
101263.612579
101310.234354
101324.000610
101303.019390
101279.645051
101324.000610
101321.065237
101295.186769
101303.019390
101271.368263
101306.397347
101312.503523
101276.297622
101299.768435
101306.397347
101273.046533
101286.615152
101293.033305
101276.297622
101312.503523
101286.615152
101276.297622
101321.669927
101299.768435
101324.154195
101280.917251
101280.917251
101271.368263
101280.917251
101286.615152
101293.033305
101312.503523
101280.917251