/*--------------------------------*- C++ -*----------------------------------*\
| =========                 |                                                 |
| \\      /  F ield         | OpenFOAM: The Open Source CFD Toolbox           |
|  \\    /   O peration     | Version:  2406                                  |
|   \\  /    A nd           | Website:  www.openfoam.com                      |
|    \\/     M anipulation  |                                                 |
\*---------------------------------------------------------------------------*/
FoamFile
{
    version     2.0;
    format      ascii;
    arch        "LSB;label=32;scalar=64";
    class       volScalarField;
    location    "100";
    object      k;
}
// * * * * * * * * * * * * * * * * * * * * * * * * * * * * * * * * * * * * * //

dimensions      [0 2 -2 0 0 0 0];

internalField   nonuniform List<scalar> 
16045
(
0.054775069
0.047088071
0.041211743
0.036588732
0.032857494
0.029793851
0.027226995
0.025058092
0.023189088
0.021578768
0.020159081
0.018919827
0.017805683
0.016824781
0.015927625
0.015133259
0.01439575
0.013740092
0.013123521
0.012573598
0.012050871
0.011583254
0.011134788
0.010732409
0.010343686
0.0099939016
0.0096539177
0.009347224
0.0090474507
0.0087765203
0.0085102518
0.0082691993
0.0080312222
0.007815148
0.0076015551
0.0074063506
0.0072142181
0.0070365497
0.0068633578
0.006700711
0.0065438089
0.0063944982
0.0062511586
0.0061141868
0.0059822777
0.0058568475
0.0057352837
0.0056200262
0.0055083054
0.0054009312
0.0052983117
0.0051964177
0.0051018346
0.0050043511
0.004917056
0.0048247062
0.0047445743
0.0046586452
0.004585603
0.0045063512
0.0044395185
0.004365846
0.0043033565
0.0042336688
0.0041735318
0.0041066771
0.0040478532
0.0039838191
0.0039264838
0.003866654
0.0038119579
0.0037585666
0.0037087955
0.0036639423
0.0036225453
0.0035868294
0.0035566515
0.0035289436
0.0035102052
0.0034892438
0.0034782244
0.0034624392
0.0034539627
0.0034386193
0.0034293885
0.0034115875
0.0034008631
0.0033791116
0.0033670676
0.0033418706
0.0033287298
0.0033012489
0.0032870743
0.0032580015
0.0032429031
0.0032120465
0.0031951027
0.0031631044
0.0031390087
0.0030934325
0.054774657
0.047088595
0.04121139
0.03658905
0.032857362
0.029793796
0.027227216
0.025057568
0.023189737
0.021577727
0.020160215
0.018918256
0.017807341
0.016822668
0.015929827
0.015130595
0.014398499
0.013736926
0.013126732
0.012570107
0.012054285
0.011579756
0.011138025
0.010729259
0.010346439
0.0099913174
0.0096560781
0.0093452035
0.0090491139
0.0087748992
0.008511623
0.0082677844
0.0080324539
0.007813885
0.0076025812
0.007405384
0.0072147757
0.0070361041
0.0068632707
0.0067008734
0.0065432865
0.0063951102
0.0062506404
0.0061148088
0.0059819545
0.0058568389
0.0057348399
0.0056190826
0.0055074212
0.0053998333
0.0052974702
0.005196886
0.0051021538
0.005007485
0.0049188037
0.0048293249
0.0047459318
0.0046615309
0.0045834175
0.004504381
0.0044316134
0.004358331
0.0042907453
0.0042237496
0.0041609353
0.004100525
0.0040427555
0.003988916
0.0039370798
0.0038896819
0.0038447086
0.0038037044
0.0037665122
0.0037320878
0.0037037307
0.0036755781
0.0036558187
0.0036327383
0.0036194313
0.0036001945
0.0035892843
0.0035711208
0.0035610857
0.0035404643
0.0035272699
0.0035028111
0.0034874695
0.0034557585
0.0034363228
0.0034002131
0.0033780403
0.0033384796
0.0033153043
0.003273023
0.0032500895
0.0032058636
0.0031834266
0.0031386278
0.0031131857
0.0030625929
0.054775409
0.047087624
0.041212187
0.036588093
0.032858172
0.029792854
0.027228101
0.025056569
0.023190771
0.021576642
0.020161376
0.018917132
0.017808533
0.016821591
0.015930919
0.015129693
0.014399319
0.013736367
0.013127089
0.012570043
0.012054067
0.01158021
0.011137338
0.010729981
0.010345711
0.0099917472
0.009655964
0.0093447072
0.0090501113
0.0087732551
0.0085135622
0.0082655899
0.0080344098
0.007812243
0.0076035089
0.0074050721
0.0072142768
0.0070371186
0.0068616484
0.0067028462
0.0065409471
0.0063976946
0.0062478734
0.0061175346
0.0059791156
0.0058592235
0.0057322019
0.0056214185
0.0055048133
0.0054029724
0.0052948813
0.0052004164
0.0051000862
0.0050097566
0.0049174464
0.0048301951
0.0047466177
0.004662215
0.0045885131
0.004504684
0.0044368062
0.0043548682
0.0042868246
0.0042132036
0.0041522473
0.0040919514
0.0040433252
0.0039967299
0.0039518329
0.0039121379
0.0038637262
0.0038219246
0.0037713996
0.0037248724
0.0036720339
0.0036253971
0.0035762293
0.0035274146
0.0034901608
0.0034428894
0.0034089526
0.0033643444
0.003331702
0.0032913581
0.0032585592
0.0032318507
0.003193832
0.0031695477
0.0031339232
0.0031037964
0.0030824824
0.0030470374
0.0030272717
0.0030180427
0.0029752958
0.0029712025
0.0029803707
0.0029866341
0.0029739549
0.002936256
0.054775331
0.047087749
0.041212007
0.036588293
0.032857901
0.029793085
0.027227806
0.02505673
0.023190594
0.021576565
0.020161505
0.018916662
0.017809083
0.016820706
0.015931838
0.015128533
0.014400435
0.013735097
0.01312828
0.012568712
0.012055342
0.011578751
0.011138736
0.010728465
0.010346992
0.0099905995
0.0096565759
0.0093445404
0.0090495255
0.0087743935
0.0085117889
0.0082676574
0.0080321835
0.0078142156
0.0076019513
0.0074058916
0.0072141628
0.0070363294
0.006863082
0.006700633
0.0065436191
0.0063946608
0.0062511728
0.0061145885
0.0059820095
0.0058571728
0.005733671
0.0056202025
0.0055048445
0.0054020131
0.005294471
0.0052003256
0.0051003109
0.0050119538
0.0049186356
0.0048337025
0.0047462451
0.004663874
0.0045820852
0.0045027814
0.0044264913
0.0043522011
0.0042817898
0.0042152012
0.004152761
0.0040961293
0.0040427764
0.0039964326
0.0039509426
0.003913357
0.0038745473
0.0038424044
0.0038096304
0.0037802428
0.0037525383
0.0037234794
0.0036995559
0.0036686446
0.0036467318
0.0036133875
0.0035916523
0.0035553823
0.0035331906
0.0034949908
0.0034721017
0.0034327478
0.0034091534
0.0033671358
0.0033427687
0.0032974429
0.0032722138
0.0032242218
0.0031976454
0.0031475492
0.0031203438
0.0030680487
0.0030414055
0.0029877286
0.0029627377
0.0029022635
0.054775694
0.047087252
0.041212573
0.036587602
0.032858649
0.029792249
0.027228645
0.025055869
0.023191369
0.02157586
0.020161997
0.018916339
0.017809067
0.016820964
0.015931176
0.015129442
0.014399141
0.013736577
0.013126484
0.012570615
0.012053187
0.011580973
0.011136305
0.010730919
0.010344405
0.0099931111
0.009654058
0.0093468243
0.009047391
0.0087761425
0.0085103186
0.0082686539
0.0080314666
0.0078146025
0.0076016323
0.007406202
0.0072136674
0.0070371033
0.0068620307
0.0067020205
0.0065420265
0.0063963847
0.0062494008
0.0061162582
0.0059805261
0.005858573
0.0057328369
0.0056211583
0.0055046837
0.0054022975
0.0052944727
0.0052000486
0.0050999082
0.0050118861
0.0049178918
0.0048348872
0.0047453805
0.0046664736
0.0045805693
0.0045055203
0.0044238863
0.0043537448
0.004278461
0.0042154757
0.004149348
0.0040960988
0.0040409154
0.0039980593
0.0039534134
0.0039189612
0.0038822632
0.0038525235
0.003820647
0.0037918325
0.0037624367
0.0037317454
0.0037035195
0.0036694171
0.0036415641
0.0036038128
0.003575798
0.0035352895
0.0035069673
0.0034650579
0.0034366682
0.0033941681
0.0033658045
0.0033225696
0.003293909
0.003249658
0.0032206888
0.0031759696
0.0031472395
0.0031029599
0.0030753001
0.0030316585
0.0030064627
0.0029644956
0.0029403758
0.0028933714
0.054775522
0.047087418
0.041212596
0.03658755
0.032858901
0.029791961
0.027229114
0.025055378
0.023192002
0.021575206
0.020162768
0.018915523
0.017810007
0.016819931
0.015932381
0.015128069
0.014400741
0.013734759
0.013128554
0.012568317
0.012055727
0.011578237
0.011139248
0.010727855
0.010347601
0.0099899104
0.0096572799
0.0093437319
0.0090503873
0.0087733823
0.0085129018
0.0082663697
0.0080335563
0.0078128044
0.0076032678
0.0074048449
0.0072148741
0.0070362129
0.0068627814
0.0067016515
0.0065423934
0.006396446
0.0062495955
0.0061164066
0.0059807963
0.0058582622
0.0057333703
0.0056200244
0.0055056896
0.0054005772
0.0052963114
0.0051985339
0.005102758
0.0050111159
0.0049212275
0.0048342955
0.0047476831
0.0046644776
0.0045801704
0.0045010503
0.004420554
0.0043476679
0.004274238
0.0042106518
0.0041475603
0.0040951059
0.0040444138
0.0040025835
0.0039636899
0.0039299113
0.0039006814
0.0038720763
0.0038493247
0.0038228814
0.0038035278
0.003776448
0.0037577902
0.0037282026
0.0037085528
0.0036751874
0.0036531472
0.0036154785
0.0035901584
0.0035480971
0.0035189206
0.0034726221
0.0034395395
0.0033900789
0.0033543375
0.0033041839
0.0032683062
0.0032204292
0.0031868122
0.0031429659
0.0031129397
0.0030727603
0.0030471081
0.0030104695
0.002986313
0.0029410395
0.054775511
0.047087475
0.041212374
0.036587856
0.032858399
0.029792575
0.02722832
0.025056281
0.023190969
0.021576319
0.020161588
0.018916735
0.01780879
0.016821114
0.015931242
0.015129096
0.014399807
0.013735492
0.013127953
0.012568659
0.012055517
0.011578201
0.01113937
0.010727559
0.010347905
0.0099895358
0.0096575752
0.0093434564
0.0090505285
0.0087732998
0.0085128604
0.008266435
0.0080334472
0.0078128308
0.0076033037
0.0074045812
0.007215251
0.0070354896
0.006863617
0.0067004747
0.0065437122
0.0063949537
0.0062513261
0.0061146547
0.0059826959
0.0058562247
0.005735093
0.0056178839
0.0055071554
0.0053989528
0.0052978169
0.0051980326
0.005104492
0.0050115733
0.0049226937
0.0048347205
0.0047481525
0.0046640304
0.0045793744
0.0044997665
0.0044189318
0.004346227
0.0042725341
0.0042097117
0.0041462048
0.0040950906
0.0040431338
0.0040031502
0.0039622357
0.00393043
0.0038990147
0.0038718829
0.0038483284
0.0038232145
0.0038054976
0.003780381
0.0037651257
0.00373761
0.0037207276
0.0036887087
0.0036672217
0.0036297773
0.0036026876
0.0035601891
0.0035280367
0.0034816461
0.0034457635
0.0033970286
0.0033594581
0.003310039
0.0032733412
0.0032245039
0.00319087
0.00314311
0.0031135615
0.0030667901
0.0030411268
0.0029958812
0.002970878
0.0029214925
0.05477583
0.047087049
0.041212737
0.036587422
0.032858741
0.029792215
0.027228525
0.025056112
0.023190899
0.021576464
0.02016115
0.018917239
0.017808003
0.016821907
0.015930223
0.015130065
0.014398661
0.013736587
0.013126705
0.012569898
0.012054158
0.011579571
0.011137941
0.010728963
0.010346551
0.0099907607
0.0096565355
0.0093442531
0.0090500008
0.0087735311
0.0085128679
0.0082661881
0.0080338184
0.0078123816
0.0076037882
0.007404192
0.0072156395
0.0070352245
0.0068638536
0.0067002095
0.0065439823
0.0063945735
0.0062519286
0.0061142124
0.0059837111
0.0058558466
0.0057361181
0.005617592
0.0055073563
0.00539855
0.0052964556
0.0051973633
0.0051017583
0.0050110457
0.0049202172
0.0048356857
0.0047483789
0.0046680329
0.0045838255
0.0045068522
0.0044262709
0.0043532746
0.0042778714
0.0042109343
0.0041434269
0.004085516
0.0040295689
0.0039831418
0.0039407408
0.0039053997
0.0038752087
0.0038476216
0.0038251281
0.0037998533
0.0037795166
0.0037513192
0.0037289214
0.0036941459
0.0036677127
0.003626045
0.003595817
0.0035496405
0.0035171061
0.0034692803
0.003436353
0.0033883713
0.003356385
0.0033084193
0.0032779343
0.0032298591
0.0032011635
0.0031529818
0.003126162
0.003077848
0.0030525666
0.0030040287
0.0029797411
0.002930627
0.0029084279
0.0028497015
0.054775808
0.047087076
0.041212734
0.036587361
0.032858837
0.029791989
0.027228785
0.02505566
0.023191364
0.021575755
0.02016184
0.018916263
0.017808924
0.016820692
0.015931353
0.015128663
0.014399973
0.013735042
0.013128177
0.012568248
0.012055747
0.011577876
0.011139565
0.010727318
0.010348077
0.009989309
0.0096578012
0.0093431417
0.0090509155
0.0087727786
0.0085135363
0.0082655707
0.0080345613
0.0078115172
0.0076050012
0.0074027944
0.0072176184
0.0070332188
0.0068665444
0.0066976771
0.0065468389
0.0063917492
0.0062542538
0.0061117076
0.0059852994
0.0058546351
0.0057373024
0.0056181625
0.0055081666
0.0053999603
0.0052960658
0.0051976752
0.0050994965
0.0050092512
0.0049171604
0.0048330861
0.0047471124
0.0046671755
0.0045864398
0.0045092258
0.0044324577
0.0043584198
0.0042857742
0.0042176709
0.0041511445
0.0040923262
0.0040341021
0.0039856596
0.0039365208
0.0038961546
0.0038552097
0.0038191468
0.0037843992
0.0037493277
0.0037179534
0.0036814074
0.0036507604
0.0036113985
0.003580372
0.0035378852
0.0035068565
0.0034618437
0.0034318452
0.0033855962
0.0033573395
0.0033114102
0.003285234
0.0032409639
0.0032172545
0.0031753617
0.0031540271
0.0031141682
0.0030943063
0.0030553223
0.0030358075
0.0029968725
0.0029771599
0.002937233
0.0029195273
0.0028634586
0.054775304
0.047087739
0.041212066
0.036588131
0.03285805
0.029792812
0.027227927
0.025056483
0.023190494
0.021576513
0.02016101
0.018916934
0.017808128
0.016821332
0.015930508
0.015129394
0.014398969
0.013735961
0.013126985
0.012569305
0.012054512
0.011578845
0.011138567
0.010727903
0.010347596
0.0099893131
0.009657949
0.0093425918
0.0090515373
0.008771983
0.0085141998
0.0082650404
0.0080347502
0.0078117102
0.0076043904
0.0074039101
0.0072161369
0.0070352476
0.0068642807
0.0067004189
0.0065439372
0.0063948914
0.0062508666
0.0061149447
0.0059818058
0.0058578359
0.0057344671
0.0056213667
0.0055067792
0.0054029444
0.0052960527
0.0051993904
0.005099382
0.0050083089
0.0049150821
0.004829089
0.0047431554
0.0046626792
0.0045839362
0.0045094318
0.004436753
0.0043681779
0.0042995337
0.00423642
0.0041702195
0.004111871
0.0040475782
0.0039925901
0.0039304587
0.0038766725
0.0038170766
0.0037629838
0.0037061823
0.0036513766
0.0035978719
0.0035430122
0.0034940718
0.0034407099
0.0033980049
0.0033483063
0.0033133088
0.0032695654
0.0032428721
0.003206198
0.0031866527
0.0031557845
0.003140459
0.0031123788
0.0030981651
0.0030705263
0.0030557937
0.0030269074
0.0030109356
0.0029800564
0.0029628639
0.0029311053
0.0029133901
0.0028816228
0.0028604878
0.002819573
0.054775971
0.047086848
0.041212957
0.03658714
0.032859018
0.029791865
0.027228851
0.025055646
0.023191329
0.021575783
0.020161763
0.018916271
0.017808838
0.016820672
0.015931242
0.01512865
0.014399819
0.013735022
0.013128061
0.012568081
0.012055859
0.01157737
0.011140057
0.010726429
0.010348881
0.0099882791
0.0096585777
0.0093424372
0.0090511904
0.0087728682
0.0085129314
0.0082666888
0.0080329889
0.0078135391
0.0076027374
0.0074053194
0.0072151052
0.0070358726
0.0068639905
0.0067004364
0.0065440093
0.0063948477
0.006250789
0.0061152641
0.0059812049
0.0058584904
0.0057332372
0.0056220802
0.0055051631
0.0054038883
0.0052946965
0.0052013936
0.0050989091
0.0050117141
0.0049151647
0.0048328762
0.0047421539
0.0046644763
0.0045800247
0.0045076167
0.0044296156
0.0043635462
0.0042916514
0.0042323712
0.0041660974
0.0041126323
0.0040516093
0.0040014188
0.0039451355
0.0038954694
0.0038430109
0.0037922811
0.0037419757
0.0036899408
0.0036401558
0.003587358
0.003538064
0.0034856
0.0034388531
0.0033880983
0.0033461986
0.0032980801
0.0032614272
0.0032158511
0.003183531
0.0031399413
0.0031114842
0.003070466
0.0030457432
0.0030079001
0.0029861107
0.0029501115
0.002929592
0.0028930056
0.0028725196
0.0028339629
0.0028135986
0.0027737779
0.0027517175
0.0027076369
0.054775049
0.047088021
0.041211885
0.036588281
0.032858077
0.029792677
0.027228337
0.025055869
0.02319144
0.021575305
0.020162517
0.018915173
0.017810066
0.016819216
0.015932624
0.015127192
0.014401018
0.01373386
0.013128854
0.012567348
0.01205621
0.011577005
0.01114012
0.010726215
0.010348926
0.0099879433
0.009658876
0.0093417577
0.0090519382
0.0087717181
0.0085142475
0.0082650057
0.0080349059
0.0078113533
0.0076051379
0.007402808
0.0072177318
0.0070333405
0.0068666142
0.0066980919
0.0065465876
0.0063927078
0.0062533433
0.0061132805
0.0059836821
0.0058566564
0.0057354699
0.0056204444
0.005507027
0.0054023223
0.0052962934
0.0051994996
0.0051005252
0.0050092113
0.004917059
0.0048299287
0.0047445088
0.0046620305
0.0045831495
0.0045065328
0.0044336552
0.004363556
0.0042959176
0.0042319037
0.0041685113
0.0041097196
0.0040495595
0.0039954542
0.0039377362
0.0038876488
0.0038319313
0.0037844283
0.0037305524
0.003683575
0.0036316499
0.0035833086
0.0035343272
0.0034839626
0.0034398945
0.0033886578
0.003350925
0.0033009411
0.0032690673
0.0032217024
0.0031939696
0.0031490906
0.0031238287
0.0030802069
0.00305628
0.003012991
0.0029895784
0.0029457242
0.0029218929
0.0028767615
0.0028525474
0.002807042
0.0027837956
0.0027393709
0.0027161433
0.0026680979
0.054775945
0.047086824
0.041213079
0.036586871
0.03285943
0.029791222
0.027229647
0.025054568
0.023192509
0.021574313
0.020163219
0.018914566
0.017810362
0.016818954
0.015932625
0.015127122
0.014400891
0.013733861
0.013128669
0.01256744
0.012055892
0.011577317
0.011139521
0.010726879
0.010347947
0.0099889891
0.0096575447
0.0093430767
0.0090504158
0.0087731199
0.008512698
0.0082664153
0.0080333288
0.0078129017
0.0076033599
0.0074047037
0.0072155778
0.0070356654
0.0068641328
0.0067007379
0.0065441251
0.006395429
0.0062513163
0.0061156748
0.0059822116
0.005858163
0.0057343906
0.0056206253
0.0055064395
0.0054014917
0.0052969606
0.0051988431
0.0051033523
0.0050097664
0.0049217233
0.00483103
0.0047486539
0.0046607889
0.0045832177
0.0044999844
0.0044278652
0.0043517381
0.004286442
0.0042193576
0.0041616071
0.0041044882
0.0040537926
0.0040061981
0.0039598831
0.0039189684
0.0038734376
0.0038348003
0.0037873035
0.0037463849
0.0036969522
0.003651575
0.0036022989
0.0035524791
0.0035055121
0.0034525587
0.0034084625
0.0033543623
0.0033129715
0.0032596994
0.0032207513
0.00316921
0.0031328781
0.0030830954
0.0030498397
0.0030016074
0.0029715331
0.0029247185
0.0028975718
0.0028526446
0.0028281238
0.0027853284
0.0027629831
0.0027213303
0.0027035998
0.0026483489
0.054776228
0.047086479
0.04121324
0.036586753
0.032859274
0.029791501
0.027228988
0.0250554
0.023191203
0.021575771
0.020161261
0.018916579
0.017807898
0.016821355
0.015929861
0.015129731
0.014398023
0.013736532
0.013125854
0.012570054
0.012053255
0.011579755
0.011137217
0.010728945
0.010346217
0.009990396
0.0096566833
0.0093435611
0.0090505719
0.0087726549
0.0085137476
0.0082652259
0.0080349827
0.0078113111
0.0076052779
0.0074030122
0.0072174186
0.0070340945
0.0068656301
0.006699478
0.0065452156
0.0063946641
0.0062522071
0.0061154868
0.0059831539
0.0058583395
0.0057352356
0.0056206463
0.0055064867
0.0054008899
0.0052956119
0.0051980404
0.0051012221
0.0050104412
0.0049208505
0.0048350269
0.0047507347
0.0046679923
0.0045873949
0.0045069585
0.0044299459
0.0043531736
0.0042812536
0.004211369
0.0041465381
0.0040868143
0.0040301952
0.0039819866
0.0039340456
0.0038970818
0.0038579939
0.0038304481
0.0037999681
0.0037774476
0.0037537764
0.0037310568
0.0037102506
0.0036824673
0.0036597697
0.0036245247
0.0035967373
0.0035540334
0.0035202496
0.0034715144
0.0034332144
0.003380549
0.0033404133
0.0032859003
0.0032466844
0.0031920368
0.0031558808
0.0031023726
0.0030701921
0.0030180301
0.0029889755
0.0029374074
0.0029103245
0.0028583898
0.0028358943
0.0027720485
0.054776045
0.047086704
0.041213101
0.03658693
0.032859189
0.029791621
0.027229
0.025055377
0.023191416
0.021575487
0.020161748
0.018915973
0.017808656
0.016820457
0.015930791
0.015128666
0.014398974
0.013735453
0.013126695
0.012569083
0.012053915
0.011578969
0.011137655
0.010728409
0.010346391
0.0099901611
0.0096565944
0.0093435869
0.0090503452
0.0087727832
0.0085135758
0.0082653013
0.0080349706
0.0078113054
0.0076053938
0.0074030271
0.007217548
0.0070342572
0.0068656549
0.0066998007
0.0065450555
0.006395063
0.0062518329
0.0061158881
0.0059826385
0.0058587479
0.0057347901
0.005621153
0.0055063397
0.0054016147
0.005295815
0.005198916
0.0051013765
0.0050109961
0.0049202358
0.0048346628
0.0047490529
0.0046665261
0.0045853598
0.0045050421
0.0044290995
0.0043517946
0.0042829713
0.0042111256
0.0041513457
0.0040877825
0.0040378726
0.0039841592
0.0039436903
0.0039000593
0.00386801
0.0038331336
0.0038080357
0.0037793911
0.0037592926
0.0037333772
0.0037159739
0.0036896736
0.0036724738
0.0036443025
0.0036254687
0.0035957293
0.0035748695
0.0035444094
0.0035218918
0.0034904449
0.0034664297
0.0034327172
0.003406916
0.0033697947
0.0033421566
0.0033019372
0.0032732712
0.0032317954
0.0032037647
0.0031629168
0.0031374122
0.0030991658
0.0030730924
0.0030243283
0.054775645
0.047087224
0.041212559
0.036587456
0.032858702
0.029791952
0.02722876
0.025055343
0.023191555
0.021574999
0.02016232
0.018915027
0.01780964
0.016819123
0.015932099
0.015127093
0.014400415
0.013733884
0.013127979
0.012567822
0.012054723
0.011578286
0.011137751
0.010728444
0.010345707
0.0099909195
0.0096551783
0.0093450127
0.0090483238
0.0087747533
0.0085111551
0.0082676289
0.0080324008
0.0078137713
0.007602915
0.0074054045
0.0072153666
0.007036337
0.0068639644
0.0067014366
0.0065440664
0.0063962022
0.0062516748
0.006116528
0.0059830863
0.0058587749
0.0057351449
0.0056203586
0.0055060558
0.0054003611
0.0052954906
0.0051986603
0.0051026637
0.0050133109
0.0049238392
0.0048388846
0.0047526624
0.0046691466
0.0045842795
0.0045018689
0.0044198845
0.0043420033
0.0042677382
0.0041999104
0.0041384577
0.0040844945
0.0040382513
0.003998496
0.0039655755
0.0039356738
0.0039110862
0.0038849567
0.0038636101
0.0038382572
0.0038183874
0.0037941818
0.0037760309
0.0037545756
0.0037392186
0.003721216
0.0037090998
0.0036934576
0.0036836745
0.0036682702
0.0036598376
0.0036430824
0.0036323313
0.0036125333
0.0036000985
0.0035739687
0.0035582176
0.003527315
0.0035080958
0.0034762919
0.0034556656
0.0034262291
0.0034059364
0.0033816805
0.0033550645
0.0033116047
0.054775057
0.047087965
0.041211958
0.036588095
0.032858223
0.029792381
0.027228508
0.025055475
0.023191571
0.021574837
0.020162527
0.01891471
0.017809833
0.016818888
0.015932046
0.015127133
0.01440001
0.013734234
0.013127285
0.012568356
0.01205394
0.011578761
0.011137155
0.010728611
0.010345508
0.0099906328
0.0096554595
0.0093442813
0.0090490032
0.0087737548
0.0085120366
0.0082665928
0.0080333071
0.0078128237
0.0076037955
0.0074045158
0.0072162937
0.0070354116
0.0068650113
0.0067004416
0.0065451968
0.0063952062
0.006252766
0.006115636
0.005984039
0.0058580659
0.0057359734
0.0056198414
0.0055068341
0.0053999791
0.0052961944
0.0051982848
0.0051031556
0.0050129119
0.0049240142
0.0048388403
0.0047525959
0.0046698417
0.0045840121
0.0045033241
0.0044194659
0.004343507
0.0042666927
0.0041997159
0.0041358508
0.0040813521
0.0040335484
0.0039922805
0.0039596955
0.00393078
0.0039105829
0.0038913954
0.0038786727
0.0038635547
0.0038529176
0.003836084
0.0038243991
0.0038023632
0.0037887081
0.0037608627
0.0037451084
0.0037126323
0.0036945809
0.0036588004
0.0036383747
0.0036002225
0.0035785825
0.0035396101
0.0035174725
0.0034778901
0.0034549225
0.003414048
0.0033896652
0.0033468749
0.003321562
0.003277396
0.0032529145
0.0032081024
0.0031887648
0.0031304767
0.054775128
0.047087848
0.04121205
0.036587962
0.032858293
0.02979227
0.027228468
0.025055482
0.0231913
0.021575067
0.020161946
0.018915204
0.017808974
0.016819577
0.015931045
0.015127883
0.014399029
0.0137349
0.013126466
0.012568834
0.012053343
0.01157906
0.011136707
0.010728842
0.010345093
0.0099909121
0.0096549857
0.0093446911
0.0090484202
0.0087743253
0.0085113488
0.0082672947
0.0080325801
0.0078135769
0.0076031485
0.0074051942
0.0072158739
0.0070358626
0.0068649348
0.0067005662
0.0065454444
0.0063950785
0.0062531419
0.0061155604
0.0059842893
0.0058585306
0.00573593
0.0056212924
0.0055064029
0.0054022664
0.0052949593
0.0052003885
0.0051003766
0.0050135644
0.0049197441
0.0048380738
0.0047487898
0.0046700274
0.0045842979
0.0045077834
0.0044262185
0.004353167
0.0042778691
0.0042108702
0.0041444855
0.0040859832
0.0040307928
0.0039818981
0.0039392014
0.0038999088
0.0038695354
0.0038387834
0.00381903
0.003795548
0.0037829157
0.0037652713
0.0037551697
0.0037396237
0.0037300294
0.0037126607
0.0037010105
0.0036808675
0.0036677511
0.0036429196
0.0036276008
0.0035986422
0.0035803814
0.003548798
0.0035284168
0.0034945342
0.0034727196
0.0034365437
0.0034137607
0.003375249
0.0033520281
0.0033113303
0.0032883087
0.003247239
0.0032215269
0.0031714925
0.054776209
0.047086447
0.041213293
0.036586508
0.032859514
0.029790959
0.027229469
0.025054478
0.023191944
0.021574433
0.020162215
0.018914874
0.017808948
0.016819443
0.015930803
0.015127879
0.014398601
0.013735031
0.013125867
0.012569074
0.012052678
0.011579271
0.011136179
0.01072886
0.010344851
0.0099906833
0.0096550397
0.0093442657
0.0090487084
0.0087737571
0.0085118181
0.0082666435
0.0080331691
0.0078130009
0.0076036808
0.0074049593
0.0072160138
0.0070361757
0.0068643801
0.0067014329
0.0065442873
0.0063963214
0.0062519343
0.0061168665
0.0059836284
0.0058593698
0.0057359674
0.0056210328
0.0055067746
0.0054006994
0.0052954949
0.0051980707
0.0051016481
0.0050116389
0.0049224859
0.0048373281
0.0047530243
0.0046702705
0.0045888113
0.0045079412
0.0044292179
0.0043522132
0.0042782214
0.004208115
0.0041419192
0.0040812062
0.0040256475
0.0039755632
0.0039322268
0.0038927849
0.0038612141
0.0038320545
0.0038102495
0.0037905589
0.0037762115
0.003764498
0.0037547654
0.0037493683
0.0037416326
0.0037364346
0.0037317927
0.0037253711
0.0037187467
0.0037075744
0.0036990286
0.0036798236
0.0036664681
0.0036409368
0.003624467
0.0035885237
0.0035682525
0.0035240708
0.0034998085
0.0034508344
0.0034244109
0.0033719548
0.0033449654
0.0032909986
0.0032643655
0.0032047059
0.054776328
0.047086225
0.04121371
0.03658599
0.032860218
0.029790182
0.027230349
0.025053563
0.023192815
0.021573563
0.020162866
0.018914238
0.01780923
0.016819136
0.015930716
0.015127844
0.0143983
0.013735084
0.013125561
0.012569031
0.012052496
0.011579066
0.011136108
0.010728537
0.010344811
0.0099903116
0.0096549888
0.0093438781
0.0090486714
0.0087733675
0.0085118448
0.0082662501
0.0080332984
0.007812579
0.0076039551
0.0074044784
0.0072165003
0.0070356566
0.0068651093
0.0067009298
0.006545125
0.0063958505
0.0062526135
0.0061164022
0.0059840231
0.005858979
0.0057362803
0.0056208932
0.0055073388
0.0054008862
0.0052963298
0.005198518
0.0051023069
0.0050121746
0.0049223743
0.0048378053
0.0047516754
0.0046702073
0.0045861347
0.004506833
0.004425731
0.0043498686
0.0042750679
0.0042056684
0.0041418363
0.0040823639
0.0040330596
0.0039854367
0.0039510597
0.0039144352
0.0038918792
0.0038627896
0.0038463965
0.003820424
0.0038049745
0.003778153
0.003760749
0.0037311386
0.0037101857
0.0036780687
0.003655473
0.0036233902
0.0036021163
0.0035729192
0.0035553326
0.003530472
0.0035171314
0.0034957901
0.0034850204
0.0034647036
0.0034543356
0.0034332044
0.0034220475
0.0033999264
0.0033878877
0.0033661809
0.0033525981
0.0033309338
0.003318789
0.0032593407
0.054776165
0.047086496
0.041213224
0.036586586
0.032859359
0.029791114
0.027229187
0.02505469
0.023191546
0.021574653
0.020161714
0.018915082
0.017808344
0.016819624
0.015930132
0.015127972
0.014397972
0.013734907
0.013125425
0.012568621
0.012052504
0.011578478
0.011136251
0.010727787
0.010345114
0.0099893998
0.0096554653
0.0093428398
0.009049286
0.0087722913
0.0085125271
0.008265221
0.0080340094
0.0078115739
0.0076047864
0.007403353
0.0072177046
0.0070342597
0.0068669186
0.0066991966
0.006547455
0.006393762
0.0062550043
0.0061140447
0.0059859932
0.0058567751
0.0057377795
0.005619583
0.0055087199
0.0054008947
0.0052977408
0.005199192
0.0051032856
0.0050119956
0.0049223932
0.0048357482
0.0047508788
0.0046670192
0.0045856386
0.0045046648
0.0044265276
0.0043506384
0.0042772169
0.0042098908
0.0041442011
0.0040887832
0.0040340795
0.0039925965
0.0039512883
0.0039223916
0.0038938157
0.0038716692
0.0038509514
0.0038277815
0.003808199
0.0037782091
0.0037547543
0.0037162894
0.003687652
0.0036429781
0.0036107234
0.0035636624
0.0035308483
0.0034848486
0.0034543881
0.0034117458
0.0033853459
0.0033471663
0.0033252286
0.0032915602
0.003273359
0.0032432166
0.0032268047
0.0031977621
0.0031805413
0.003151219
0.0031322605
0.0031027999
0.0030890909
0.0030339757
0.054775863
0.047086836
0.041212906
0.036586865
0.032859139
0.029791195
0.027229165
0.0250545
0.02319174
0.021574206
0.02016207
0.018914448
0.01780878
0.016818871
0.015930608
0.015127096
0.014398535
0.01373382
0.013126183
0.012567215
0.012053537
0.011576717
0.011137549
0.010725769
0.010346539
0.0099873588
0.0096567808
0.0093410814
0.0090502449
0.0087711012
0.0085129407
0.0082647893
0.008033776
0.0078119274
0.0076039117
0.0074043667
0.0072162896
0.0070357816
0.0068651984
0.0067010985
0.0065457178
0.0063958448
0.0062533643
0.0061159458
0.0059844218
0.0058581964
0.00573643
0.0056206744
0.005507996
0.0054021069
0.0052977978
0.0052006114
0.0051036383
0.0050131314
0.0049222685
0.0048359138
0.0047500912
0.0046658826
0.0045845913
0.004502383
0.0044260167
0.0043477696
0.0042776774
0.004206955
0.0041454466
0.0040863122
0.0040361537
0.0039908502
0.0039542755
0.0039220381
0.003898845
0.0038762811
0.0038624295
0.0038442959
0.0038337745
0.0038150329
0.0038028989
0.0037797855
0.0037635655
0.0037337209
0.0037128586
0.003675588
0.0036502675
0.0036066635
0.0035777704
0.0035304173
0.0035002534
0.0034523146
0.0034238886
0.0033777263
0.0033527019
0.0033088725
0.0032866625
0.0032442148
0.0032229453
0.0031808758
0.0031592953
0.0031157506
0.0030977552
0.0030352261
0.05477568
0.047087057
0.041212811
0.036586887
0.032859196
0.029791017
0.027229336
0.025054187
0.023191937
0.02157383
0.020162253
0.018913968
0.017809067
0.016818092
0.015931228
0.015125807
0.014399643
0.013731995
0.013127675
0.012565121
0.012055026
0.011574841
0.011138518
0.010724594
0.010346602
0.0099871466
0.0096558417
0.009341815
0.0090484481
0.0087725799
0.0085105877
0.0082667186
0.008031204
0.0078141083
0.0076013177
0.0074067559
0.007213713
0.0070383755
0.0068625653
0.0067038868
0.0065429864
0.0063988133
0.0062507329
0.006119034
0.0059821358
0.0058611647
0.0057343986
0.0056230907
0.0055059036
0.0054038555
0.0052957637
0.0052023436
0.0051022578
0.0050156061
0.0049216511
0.0048389557
0.0047494793
0.0046683458
0.0045832144
0.0045032488
0.0044239359
0.0043473413
0.0042759701
0.0042066684
0.004145153
0.0040868413
0.0040365978
0.0039916723
0.0039533841
0.0039216954
0.0038944333
0.0038731928
0.0038544763
0.0038388145
0.0038246511
0.0038086416
0.0037944753
0.0037728458
0.0037548666
0.0037242473
0.0037002585
0.0036597919
0.0036295508
0.0035807766
0.0035460031
0.0034920467
0.0034558442
0.0033996274
0.0033643424
0.0033078424
0.0032745495
0.0032193427
0.0031886903
0.0031356917
0.0031080823
0.0030572256
0.0030320934
0.0029826917
0.0029579623
0.0029039444
0.05477554
0.047087279