/*--------------------------------*- C++ -*----------------------------------*\
| =========                 |                                                 |
| \\      /  F ield         | OpenFOAM: The Open Source CFD Toolbox           |
|  \\    /   O peration     | Version:  2406                                  |
|   \\  /    A nd           | Website:  www.openfoam.com                      |
|    \\/     M anipulation  |                                                 |
\*---------------------------------------------------------------------------*/
FoamFile
{
    version     2.0;
    format      ascii;
    arch        "LSB;label=32;scalar=64";
    class       volScalarField;
    location    "100";
    object      nut;
}
// * * * * * * * * * * * * * * * * * * * * * * * * * * * * * * * * * * * * * //

dimensions      [0 2 -1 0 0 0 0];

internalField   nonuniform List<scalar> 
16045
(
0.00014889015
0.00014713052
0.00014558409
0.00014422489
0.00014298985
0.00014189432
0.00014086414
0.00013995793
0.00013906786
0.0001383075
0.00013751548
0.00013687299
0.00013615151
0.00013560583
0.0001349379
0.00013447075
0.000133847
0.00013344199
0.00013285805
0.00013250095
0.00013195509
0.00013163378
0.00013112533
0.00013082985
0.00013035814
0.00013008153
0.00012964472
0.00012938397
0.00012897772
0.00012873306
0.00012835073
0.00012812267
0.00012775867
0.0001275447
0.00012719919
0.00012699279
0.00012667232
0.00012646567
0.00012617608
0.00012596506
0.00012570164
0.00012549029
0.000125238
0.00012503859
0.00012478665
0.00012461097
0.00012436596
0.00012420914
0.00012398866
0.00012381983
0.00012363537
0.00012341355
0.00012326712
0.00012297636
0.00012287276
0.00012254093
0.00012249157
0.00012216813
0.00012217453
0.00012188866
0.00012192207
0.0001216632
0.00012166429
0.0001213959
0.00012130226
0.0001209906
0.00012076994
0.00012041579
0.00012007776
0.00011973487
0.00011932776
0.00011909012
0.00011870667
0.00011867403
0.00011845243
0.00011867715
0.00011874399
0.00011921292
0.00011961171
0.00012029493
0.00012092995
0.00012177734
0.00012248542
0.00012332721
0.00012399173
0.00012471385
0.00012529736
0.00012583737
0.00012632751
0.00012670731
0.00012709354
0.00012736476
0.00012764769
0.00012783675
0.00012803709
0.00012813532
0.00012824773
0.00012828681
0.00012790264
0.00012837423
0.00014888912
0.00014713201
0.00014558307
0.00014422596
0.00014298974
0.00014189375
0.00014086613
0.00013995437
0.00013907325
0.00013829959
0.00013752564
0.00013685946
0.0001361677
0.00013558567
0.00013496112
0.00013444328
0.00013387778
0.0001334072
0.00013289579
0.00013246042
0.00013199711
0.00013159131
0.00013116689
0.00013079046
0.00013039436
0.00013004919
0.00012967274
0.00012935998
0.00012899755
0.00012871618
0.00012836461
0.00012811043
0.00012776909
0.00012753561
0.00012720615
0.00012698778
0.00012667286
0.00012646715
0.00012616806
0.00012597394
0.00012568913
0.00012550396
0.00012522922
0.00012504934
0.00012478513
0.00012460567
0.00012436532
0.00012417976
0.00012398129
0.00012378277
0.0001236297
0.00012341072
0.00012328619
0.00012304027
0.00012292195
0.00012264975
0.00012252762
0.00012224303
0.00012211974
0.00012184433
0.0001217189
0.00012147469
0.00012133673
0.00012114555
0.00012098209
0.00012085508
0.00012067895
0.000120626
0.0001204784
0.00012051419
0.00012044314
0.00012059464
0.00012065021
0.00012095828
0.00012119541
0.00012168265
0.00012211647
0.00012276369
0.00012334801
0.00012411972
0.00012473809
0.00012553412
0.00012614912
0.00012683675
0.00012730941
0.0001278288
0.00012818998
0.00012840847
0.0001285764
0.00012859727
0.00012861239
0.00012847647
0.00012840536
0.00012814054
0.00012804266
0.00012767655
0.00012758336
0.00012716681
0.0001267514
0.00012702009
0.00014889122
0.00014712889
0.00014558595
0.0001442221
0.00014299342
0.00014188906
0.00014087115
0.00013994831
0.00013908032
0.00013829178
0.00013753484
0.00013685019
0.0001361784
0.00013557564
0.00013497234
0.00013443345
0.00013388805
0.0001333992
0.00013290286
0.00013245662
0.00013199835
0.00013159387
0.0001311612
0.00013079863
0.00013038517
0.00013005674
0.00012966879
0.00012935697
0.00012900811
0.00012869648
0.00012839003
0.00012808104
0.00012779568
0.00012751479
0.00012721526
0.00012699028
0.00012665658
0.0001264929
0.00012613297
0.00012601448
0.0001256444
0.00012555219
0.00012517946
0.00012509852
0.00012473336
0.00012465123
0.00012431139
0.00012423314
0.0001239188
0.00012386397
0.00012356109
0.00012350746
0.00012322823
0.00012310911
0.00012287879
0.00012268549
0.00012252426
0.00012227451
0.00012221228
0.00012185609
0.00012180115
0.00012136112
0.00012117761
0.00012081863
0.00012075086
0.00012062703
0.0001208746
0.00012104123
0.00012137186
0.00012166811
0.00012185031
0.00012202405
0.00012207201
0.00012204789
0.00012192018
0.00012185249
0.00012171237
0.00012154437
0.00012164558
0.00012151985
0.00012155927
0.00012151028
0.00012143417
0.00012149396
0.00012128732
0.00012178786
0.00012129054
0.00012182107
0.00012132903
0.00012158294
0.00012157669
0.00012157677
0.00012157858
0.00012260017
0.00012162334
0.00012283985
0.00012397571
0.00012564578
0.00012571484
0.00012628642
0.00014889104
0.00014712923
0.00014558544
0.00014422272
0.00014299259
0.00014188976
0.00014087038
0.00013994836
0.00013908067
0.00013828976
0.00013753803
0.00013684441
0.00013618588
0.00013556537
0.00013498405
0.00013441977
0.00013390233
0.00013338405
0.00013291798
0.00013244099
0.00013201411
0.00013157705
0.00013117827
0.00013078102
0.00013040089
0.00013004373
0.00012967545
0.00012935771
0.00012899717
0.00012871693
0.00012836059
0.00012811594
0.00012775952
0.0001275469
0.00012719175
0.00012700113
0.00012665924
0.0001264747
0.00012616298
0.00012597148
0.00012569514
0.00012549634
0.00012523937
0.00012504726
0.00012478269
0.00012462054
0.00012432926
0.00012422197
0.0001239033
0.00012386073
0.00012353237
0.0001235264
0.00012321126
0.00012318275
0.00012288687
0.00012278541
0.00012250364
0.00012231679
0.00012204881
0.00012180178
0.0001215427
0.00012130058
0.00012106211
0.00012091645
0.0001207687
0.00012080632
0.00012080284
0.00012106139
0.00012118324
0.00012163929
0.00012186403
0.00012243615
0.00012275002
0.00012336128
0.0001237396
0.00012431178
0.00012472283
0.0001251827
0.00012557891
0.00012590591
0.0001262362
0.00012640441
0.00012665739
0.00012668351
0.00012685182
0.0001267486
0.00012681573
0.00012652284
0.00012646343
0.00012595479
0.0001257646
0.00012505707
0.00012473826
0.00012386559
0.00012348245
0.00012245014
0.00012205673
0.00012090985
0.00012079288
0.00011994217
0.00014889207
0.00014712759
0.00014558754
0.00014421991
0.00014299594
0.00014188579
0.00014087474
0.0001399437
0.00013908527
0.00013828546
0.00013754141
0.0001368422
0.00013618603
0.00013556738
0.00013497896
0.00013442769
0.00013389078
0.00013339856
0.00013289986
0.00013246186
0.00013198974
0.00013160417
0.00013114761
0.00013081422
0.00013036475
0.00013008107
0.00012963716
0.00012939409
0.00012896329
0.0001287448
0.00012833884
0.0001281286
0.00012775384
0.00012754519
0.00012719625
0.00012699606
0.00012665992
0.00012648142
0.00012614724
0.00012599729
0.00012566118
0.00012553534
0.0001251972
0.00012508692
0.00012474767
0.00012465049
0.00012431439
0.00012423493
0.00012391144
0.00012385183
0.00012354905
0.00012350299
0.00012321491
0.0001231704
0.00012287066
0.0001228153
0.00012247245
0.00012239339
0.00012199989
0.00012188859
0.00012148094
0.00012136043
0.00012101131
0.00012094617
0.00012074494
0.00012081841
0.00012082623
0.00012107371
0.00012128095
0.00012167235
0.00012198951
0.00012245411
0.00012277186
0.00012323275
0.00012348166
0.00012387425
0.0001240409
0.00012431845
0.0001244151
0.00012455669
0.0001245926
0.00012461077
0.0001245844
0.0001245145
0.00012441982
0.00012428815
0.00012411676
0.00012392082
0.00012366573
0.00012340405
0.0001230829
0.00012278688
0.00012243919
0.00012216004
0.00012183574
0.00012158846
0.0001213477
0.00012116501
0.00012093383
0.00012095523
0.00014889146
0.00014712838
0.00014558735
0.0001442201
0.00014299669
0.00014188495
0.00014087672
0.00013994166
0.00013908847
0.00013828223
0.00013754589
0.00013683755
0.00013619227
0.00013556052
0.00013498814
0.00013441705
0.00013390478
0.00013338225
0.00013292043
0.00013243831
0.00013201826
0.00013157233
0.00013118478
0.00013077401
0.00013040984
0.00013003421
0.00012968727
0.00012934442
0.00012901377
0.00012869713
0.00012838513
0.00012808664
0.00012779352
0.00012751008
0.00012722906
0.00012696759
0.00012668607
0.00012646026
0.0001261656
0.00012598596
0.00012567095
0.00012553466
0.00012520042
0.00012509195
0.00012474827
0.00012464993
0.00012431732
0.00012421835
0.0001239235
0.00012382157
0.00012358123
0.00012347514
0.00012327556
0.0001231566
0.00012295174
0.00012280113
0.00012253756
0.00012233847
0.00012200037
0.00012176351
0.00012139736
0.00012118449
0.000120883
0.00012079093
0.00012065065
0.00012075201
0.00012083722
0.00012114509
0.00012144229
0.00012190721
0.00012236042
0.00012291952
0.00012344567
0.00012402102
0.00012454023
0.00012504595
0.00012549823
0.00012586763
0.00012622159
0.00012640472
0.00012662076
0.00012659989
0.00012665565
0.00012643301
0.000126315
0.00012590406
0.00012560387
0.00012505368
0.00012461398
0.00012401514
0.00012353583
0.00012299669
0.00012257131
0.00012215438
0.0001218147
0.00012150194
0.00012125872
0.00012104652
0.00012097114
0.00012083018
0.00014889149
0.00014712843
0.00014558661
0.00014422136
0.00014299427
0.00014188843
0.00014087177
0.00013994812
0.00013908056
0.00013829185
0.00013753515
0.00013684986
0.00013617941
0.00013557441
0.00013497446
0.00013443084
0.00013389213
0.00013339372
0.00013291112
0.00013244528
0.00013201415
0.00013157351
0.00013118666
0.00013076923
0.00013041729
0.00013002455
0.00012969852
0.0001293324
0.00012902549
0.00012868648
0.00012839369
0.00012808006
0.00012779782
0.00012750612
0.00012723274
0.00012696017
0.00012669565
0.00012644241
0.00012618724
0.00012595417
0.00012570784
0.00012549002
0.00012525203
0.00012503537
0.00012480986
0.00012458129
0.00012438001
0.00012414367
0.00012398172
0.0001237586
0.00012363737
0.00012344295
0.00012333211
0.00012315514
0.00012299844
0.00012280635
0.00012255897
0.0001223259
0.00012198827
0.00012172858
0.00012135764
0.00012113838
0.000120827
0.00012074897
0.00012058354
0.00012072976
0.00012075524
0.00012114185
0.00012135302
0.00012191808
0.00012228435
0.0001229281
0.00012341993
0.00012405874
0.00012464134
0.00012520812
0.00012579545
0.00012620257
0.00012667639
0.00012685819
0.00012712399
0.00012705659
0.00012707025
0.00012679004
0.0001265581
0.00012613189
0.0001256922
0.00012518739
0.00012461529
0.00012408258
0.00012348556
0.00012295064
0.00012242686
0.00012189326
0.00012149491
0.00012095556
0.00012067321
0.00012015151
0.00012003442
0.00011972282
0.00014889238
0.00014712708
0.00014558796
0.00014421954
0.000142996
0.00014188638
0.00014087345
0.00013994648
0.00013908131
0.0001382916
0.00013753393
0.00013685185
0.00013617569
0.00013557879
0.00013496852
0.0001344372
0.00013388452
0.00013340185
0.00013290197
0.00013245534
0.00013200339
0.00013158543
0.00013117459
0.00013078224
0.00013040508
0.00013003682
0.00012968815
0.00012934156
0.00012901914
0.00012869034
0.00012839261
0.00012807832
0.00012780124
0.00012750113
0.00012723849
0.00012695473
0.00012670136
0.00012643699
0.00012619212
0.00012594662
0.00012571494
0.00012547857
0.00012526675
0.00012502172
0.00012483355
0.00012456886
0.00012440431
0.00012413324
0.00012398854
0.00012374547
0.00012360899
0.00012342269
0.00012327034
0.00012313685
0.00012293926
0.00012282487
0.00012256168
0.00012242634
0.00012209575
0.00012192225
0.0001215441
0.00012135123
0.00012097073
0.0001208223
0.00012051697
0.00012051091
0.000120391
0.00012061758
0.00012075668
0.00012122089
0.00012160232
0.00012221926
0.00012273362
0.00012334173
0.00012384026
0.00012427695
0.00012463968
0.00012478945
0.00012495777
0.0001248233
0.00012481287
0.00012448827
0.00012435497
0.00012394616
0.0001237561
0.00012331278
0.0001231108
0.00012262701
0.00012242455
0.00012188424
0.00012167861
0.00012107268
0.0001208626
0.0001201857
0.00011996644
0.00011921413
0.00011896359
0.00011812817
0.0001180855
0.00011728459
0.00014889221
0.00014712736
0.00014558767
0.00014421975
0.00014299587
0.00014188608
0.00014087398
0.00013994505
0.00013908312
0.00013828831
0.00013753774
0.00013684597
0.00013618218
0.00013556988
0.00013497803
0.00013442531
0.00013389702
0.00013338732
0.00013291717
0.00013243877
0.0001320206
0.00013156775
0.00013119262
0.00013076474
0.00013042224
0.00013002115
0.00012970273
0.00012932893
0.00012903078
0.00012867999
0.00012840382
0.000128066
0.00012781761
0.00012748043
0.00012726639
0.00012692151
0.00012674476
0.00012639155
0.00012624863
0.00012589182
0.00012577364
0.00012541903
0.00012531393
0.00012496868
0.00012486549
0.00012454158
0.00012442894
0.0001241429
0.0001240073
0.00012377292
0.00012360281
0.00012342413
0.00012322167
0.00012308625
0.00012287249
0.00012275037
0.00012254176
0.00012238925
0.00012217873
0.00012196071
0.00012172254
0.00012145612
0.00012119226
0.00012096892
0.00012072951
0.00012066781
0.00012051358
0.00012067057
0.00012062901
0.00012095067
0.00012100691
0.00012137402
0.00012148949
0.00012179317
0.00012190209
0.0001220726
0.0001221198
0.00012212811
0.00012210228
0.0001219513
0.00012187738
0.00012159092
0.00012151023
0.00012112847
0.00012107273
0.00012064384
0.00012063446
0.00012020841
0.00012026382
0.00011988154
0.00011999192
0.00011965861
0.00011977569
0.00011945351
0.00011951941
0.00011917111
0.00011916694
0.00011874774
0.00011856819
0.00011844314
0.0001488909
0.00014712934
0.00014558554
0.00014422242
0.00014299309
0.00014188917
0.00014087079
0.00013994821
0.00013907986
0.00013829115
0.00013753469
0.00013684832
0.00013617923
0.00013557224
0.00013497429
0.00013442901
0.00013389107
0.00013339379
0.00013290808
0.00013244821
0.00013200916
0.00013157818
0.00013118182
0.00013077236
0.00013041629
0.00013002195
0.00012970516
0.00012932083
0.00012904181
0.00012866538
0.00012841827
0.00012805257
0.00012782607
0.00012747836
0.00012725963
0.00012693842
0.00012671758
0.00012643071
0.00012620001
0.00012595178
0.00012570465
0.00012549442
0.00012522836
0.00012505091
0.00012477442
0.00012462391
0.00012435226
0.00012422382
0.00012396453
0.00012384815
0.00012359226
0.00012347178
0.00012320668
0.00012307403
0.00012280421
0.00012266667
0.00012241865
0.00012229644
0.00012208702
0.00012199538
0.00012181329
0.00012175324
0.00012155632
0.00012151691
0.00012126643
0.00012123166
0.00012090781
0.000120846
0.0001204402
0.00012030023
0.00011981154
0.00011955662
0.00011900033
0.00011862392
0.00011804545
0.00011758144
0.00011705901
0.00011659221
0.00011621519
0.00011585027
0.00011568977
0.00011552584
0.00011561857
0.00011569787
0.00011601872
0.0001162909
0.00011674278
0.00011709807
0.00011756087
0.00011792028
0.00011831876
0.00011862145
0.00011891464
0.00011912985
0.00011930975
0.00011947644
0.00011957242
0.00011971242
0.00011946501
0.00011987797
0.00014889281
0.00014712637
0.00014558887
0.00014421836
0.0001429974
0.00014188477
0.00014087542
0.0001399441
0.00013908435
0.00013828756
0.00013753894
0.00013684508
0.00013618359
0.00013556864
0.00013497966
0.00013442377
0.00013389895
0.00013338503
0.00013292047
0.0001324339
0.00013202761
0.00013155774
0.00013120539
0.00013074863
0.00013044012
0.00013000175
0.00012972106
0.00012931316
0.00012904149
0.00012867673
0.00012839834
0.00012808219
0.00012779097
0.00012751766
0.00012721983
0.00012697521
0.00012668532
0.00012645415
0.0001261823
0.00012596016
0.00012569874
0.00012549542
0.00012522461
0.00012505533
0.00012476116
0.00012463639
0.00012432243
0.00012424239
0.00012392067
0.00012387718
0.0001235498
0.00012352756
0.00012318326
0.00012316152
0.00012279452
0.00012275986
0.00012238215
0.00012233807
0.000121976
0.00012194828
0.00012162098
0.00012164418
0.00012135624
0.00012144478
0.00012119457
0.00012132089
0.00012110352
0.00012119879
0.00012099679
0.00012099118
0.00012077197
0.0001206316
0.00012034704
0.0001200758
0.00011968995
0.00011931526
0.0001188488
0.00011841804
0.00011795483
0.00011753534
0.00011716358
0.00011680838
0.00011655166
0.00011626634
0.00011610479
0.00011586695
0.0001157917
0.0001156209
0.00011562515
0.00011554495
0.0001155931
0.0001155495
0.00011557659
0.00011546379
0.00011542713
0.00011518492
0.00011510744
0.00011476803
0.00011442646
0.00011467478
0.00014889004
0.00014713054
0.00014558454
0.00014422364
0.00014299252
0.00014188968
0.00014087183
0.00013994661
0.00013908405
0.00013828585
0.0001375433
0.00013683837
0.00013619254
0.00013555794
0.0001349913
0.00013441176
0.00013391013
0.00013337504
0.00013292797
0.00013242859
0.00013202952
0.00013155788
0.00013120215
0.00013075253
0.00013043443
0.00013000604
0.00012971668
0.00012931405
0.00012904231
0.00012867067
0.00012840824
0.00012806572
0.00012781325
0.00012748806
0.00012725598
0.00012693263
0.00012673266
0.00012640339
0.00012623646
0.00012590603
0.00012575788
0.00012543969
0.00012528811
0.00012499846
0.0001248265
0.00012458024
0.00012438399
0.0001241897
0.00012397469
0.00012382512
0.00012359916
0.00012346566
0.00012323657
0.00012308162
0.0001228598
0.00012266617
0.00012246386
0.00012225705
0.00012207978
0.0001219055
0.00012174575
0.00012163301
0.00012147315
0.00012141552
0.00012122875
0.0001211997
0.0001209579
0.00012094048
0.00012062177
0.00012060079
0.00012020255
0.00012014915
0.00011968377
0.00011955028
0.00011904769
0.00011878494
0.00011830405
0.00011789512
0.00011751564
0.00011700251
0.00011677099
0.00011623299
0.0001161227
0.00011561951
0.00011555976
0.00011510374
0.0001150313
0.0001145918
0.00011447539
0.00011401806
0.00011384897
0.00011332603
0.00011309328
0.0001124616
0.00011218282
0.00011147524
0.0001112243
0.00011051261
0.00011007086
0.00011016885
0.00014889271
0.00014712638
0.00014558935
0.00014421732
0.00014299944
0.00014188166
0.00014088
0.00013993813
0.00013909194
0.00013827857
0.00013754922
0.00013683383
0.0001361952
0.00013555674
0.00013499083
0.00013441307
0.00013390778
0.00013337774
0.00013292451
0.00013243284
0.00013202393
0.00013156556
0.00013119191
0.0001307663
0.00013041688
0.00013002774
0.00012969079
0.00012934299
0.00012901014
0.00012870323
0.00012837382
0.00012809829
0.00012777922
0.00012752021
0.00012722139
0.00012696659
0.00012669498
0.00012644119
0.00012619482
0.00012594895
0.00012571445
0.00012548833
0.00012524633
0.000125049
0.000124787
0.00012462102
0.00012434542
0.00012420635
0.00012394473
0.00012381739
0.00012360151
0.00012345641
0.00012329782
0.00012309585
0.00012297658
0.00012268807
0.00012258146
0.00012220817
0.00012210641
0.00012169833
0.00012162542
0.00012125955
0.00012124977
0.00012099926
0.00012106317
0.00012097961
0.00012109031
0.00012119095
0.0001212548
0.00012148052
0.00012138634
0.00012161588
0.00012129149
0.00012138171
0.00012084881
0.00012072953
0.00012009153
0.00011975847
0.00011911445
0.00011861027
0.00011799082
0.00011738463
0.00011678438
0.00011614585
0.00011555681
0.00011491707
0.00011435714
0.00011371487
0.00011322313
0.00011257143
0.00011217322
0.00011151788
0.00011121001
0.00011058932
0.00011035081
0.00010979026
0.00010960738
0.00010906837
0.00010886032
0.00010864633
0.0001488934
0.00014712547
0.00014558966
0.00014421722
0.00014299832
0.00014188359
0.00014087605
0.00013994355
0.00013908365
0.00013828873
0.00013753561
0.00013684925
0.00013617619
0.00013557732
0.0001349668
0.00013443864
0.00013387914
0.00013340818
0.00013289179
0.0001324676
0.0001319884
0.00013160282
0.00013115648
0.00013080196
0.00013038698
0.00013005506
0.00012967368
0.00012935499
0.00012901077
0.00012869737
0.00012839137
0.00012807793
0.00012780833
0.00012749172
0.00012725499
0.00012693663
0.00012672558
0.00012641497
0.00012621674
0.00012592986
0.00012572754
0.00012547803
0.00012525704
0.00012504745
0.00012480199
0.0001246242
0.00012436078
0.00012420589
0.00012394088
0.0001238067
0.00012355938
0.0001234473
0.00012322848
0.0001231291
0.00012293092
0.00012281135
0.00012260653
0.00012242349
0.00012218498
0.0001219178
0.00012164733
0.00012133299
0.00012106896
0.00012080362
0.00012059667
0.00012048966
0.00012036607
0.00012048432
0.00012045548
0.00012082201
0.0001209011
0.00012148519
0.00012168527
0.00012236092
0.00012265501
0.00012325456
0.00012354203
0.00012390435
0.00012404449
0.00012409227
0.00012398516
0.00012372576
0.00012334715
0.00012283804
0.00012225016
0.00012157152
0.00012088238
0.00012011207
0.00011942985
0.00011863151
0.00011803489
0.00011725495
0.00011677548
0.0001160171
0.00011562414
0.000114854
0.00011451899
0.00011369584
0.00011335022
0.0001129056
0.00014889284
0.00014712627
0.00014558913
0.00014421801
0.00014299799
0.00014188422
0.00014087635
0.00013994339
0.00013908543
0.00013828683
0.00013753967
0.00013684481
0.00013618294
0.00013557005
0.000134976
0.00013442885
0.00013389016
0.00013339639
0.00013290423
0.00013245404
0.00013200236
0.00013158748
0.00013117199
0.00013078531
0.0001304033
0.00013003827
0.00012968975
0.00012933871
0.00012902696
0.00012868044
0.00012840961
0.00012805852
0.00012782973
0.00012747007
0.00012727815
0.00012691524
0.00012674806
0.00012639633
0.00012623648
0.00012591444
0.00012574242
0.0001254657
0.00012526416
0.00012503969
0.00012479938
0.00012462452
0.00012435014
0.0001242184
0.00012392705
0.00012383353
0.00012354645
0.00012348377
0.00012321163
0.00012315867
0.0001228961
0.00012281342
0.00012254802
0.00012238723
0.00012212295
0.00012185644
0.0001216259
0.00012127551
0.0001211312
0.00012077704
0.0001207669
0.00012051479
0.00012065467
0.00012058379
0.0001208563
0.0001210082
0.00012138493
0.00012174777
0.00012219614
0.00012270945
0.00012319142
0.00012374947
0.00012421853
0.00012472134
0.00012511739
0.00012552031
0.0001257936
0.00012611504
0.00012626041
0.0001265355
0.00012657691
0.00012679682
0.00012675227
0.00012686812
0.00012673387
0.00012670008
0.00012647158
0.00012629655
0.00012599739
0.00012574784
0.00012543904
0.00012518878
0.00012495891
0.00012478649
0.00012433733
0.00012461804
0.00014889186
0.00014712773
0.00014558736
0.00014421994
0.00014299603
0.00014188576
0.00014087526
0.00013994336
0.00013908645
0.00013828401
0.00013754395
0.00013683821
0.00013619138
0.00013555905
0.00013498911
0.0001344135
0.00013390736
0.00013337819
0.00013292301
0.0001324364
0.00013201823
0.00013157507
0.00013117994
0.00013078231
0.00013039963
0.00013004734
0.00012967247
0.0001293611
0.00012899591
0.00012871575
0.00012836644
0.00012810481
0.00012777784
0.00012752364
0.00012722217
0.0001269713
0.00012669276
0.00012644998
0.0001261869
0.00012596118
0.00012570519
0.00012550142
0.00012524611
0.0001250602
0.0001248009
0.00012462371
0.00012435962
0.00012419003
0.00012393196
0.00012378645
0.0001235566
0.00012345486
0.00012326087
0.00012319172
0.00012299748
0.00012289919
0.00012264092
0.00012244206
0.00012208362
0.00012177197
0.0001213629
0.00012102845
0.00012071112
0.00012051545
0.00012044723
0.0001205234
0.00012078809
0.00012118399
0.00012173806
0.00012236044
0.00012306305
0.00012374811
0.00012445089
0.0001251139
0.00012577524
0.00012643765
0.00012708017
0.00012780721
0.00012848606
0.0001293187
0.00013007269
0.0001309831
0.00013180221
0.0001327196
0.00013357597
0.00013444958
0.00013519754
0.00013597188
0.00013661627
0.00013716677
0.00013763209
0.00013800758
0.00013827878
0.00013861835
0.00013876993
0.00013919623
0.00013930338
0.00013992603
0.0001395337
0.00014023023
0.00014889022
0.00014713011
0.00014558526
0.00014422249
0.00014299414
0.0001418877
0.00014087447
0.00013994377
0.00013908755
0.00013828234
0.00013754694
0.00013683505
0.00013619488
0.00013555642
0.00013499059
0.00013441403
0.00013390463
0.00013338341
0.00013291551
0.00013244586
0.00013200762
0.00013158605
0.00013116972
0.00013079099
0.00013039336
0.00013005058
0.00012967234
0.00012935776
0.00012900176
0.00012870713
0.00012837653
0.00012809304
0.00012779028
0.00012750999
0.00012723648
0.00012695512
0.00012671004
0.00012643005
0.00012620775
0.00012593815
0.00012572756
0.00012547838
0.00012526614
0.00012504072
0.00012481594
0.00012460962
0.00012437086
0.00012418007
0.00012394307
0.00012377751
0.00012356884
0.00012344243
0.00012327289
0.00012317333
0.00012300859
0.0001228828
0.00012265316
0.00012243849
0.00012209412
0.00012178801
0.00012136516
0.00012105577
0.00012068411
0.00012051521
0.00012036077
0.00012046092
0.00012062919
0.00012104531
0.00012153712
0.00012226372
0.0001230217
0.00012399692
0.00012489653
0.00012595696
0.00012684941
0.00012781422
0.00012862183
0.00012937971
0.00013008206
0.00013060206
0.000131209
0.00013152432
0.00013203417
0.00013219357
0.00013259699
0.00013263391
0.00013296213
0.00013295508
0.00013321406
0.00013318148
0.00013334332
0.0001332524
0.00013328685
0.0001330992
0.00013302215
0.0001327449
0.00013261459
0.00013226583
0.00013243155
0.00013186131
0.00014889046
0.00014712968
0.00014558576
0.00014422175
0.0001429949
0.00014188671
0.00014087516
0.00013994312
0.00013908721
0.00013828313
0.00013754444
0.00013683828
0.00013618968
0.00013556219
0.00013498336
0.00013442135
0.00013389694
0.00013339064
0.00013290928
0.00013245129
0.00013200415
0.00013158916
0.00013116858
0.00013079286
0.00013039296
0.00013005294
0.00012967094
0.00012936209
0.00012899808
0.00012871426
0.00012836981
0.00012810328
0.00012778041
0.00012752312
0.00012722418
0.00012696992
0.00012669733
0.00012644371
0.00012619787
0.00012594683
0.00012572322
0.00012548036
0.00012526659
0.00012504015
0.00012481694
0.0001246173
0.00012436754
0.00012420819
0.00012393168
0.00012382489
0.00012353942
0.00012348613
0.00012320777
0.00012318241
0.00012290785
0.00012285753
0.00012256416
0.00012243933
0.00012211133
0.00012190149
0.00012155352
0.000121304
0.00012098426
0.00012078813
0.00012056266
0.00012051621
0.00012045436
0.00012061548
0.0001207801
0.00012116682
0.00012159174
0.00012218581
0.00012286207
0.00012363464
0.00012449021
0.00012540391
0.00012631155
0.0001272501
0.00012814872
0.00012898653
0.0001297778
0.00013048965
0.00013116941
0.0001316921
0.00013220786
0.00013255942
0.00013286552
0.00013308844
0.00013322178
0.00013331865
0.00013332966
0.00013329858
0.00013322991
0.00013307088
0.00013295768
0.00013267772
0.00013253799
0.00013220756
0.00013211917
0.00013188476
0.00014889341
0.00014712529
0.00014559009
0.00014421621
0.00014299994
0.00014188108
0.00014087977
0.00013993861
0.0001390904
0.00013828036
0.00013754606
0.00013683671
0.00013619058
0.00013556065
0.00013498444
0.00013441931
0.000133898
0.00013338897
0.00013290928
0.00013245096
0.00013200301
0.00013158954
0.00013116805
0.00013079212
0.00013039481
0.00013005037
0.00012967488
0.0001293589
0.00012900222
0.00012871188
0.00012837294
0.00012810193
0.00012778293
0.00012752295
0.00012722572
0.00012697303
0.00012669378
0.0001264531
0.00012618329
0.00012596422
0.00012569711
0.00012550448
0.00012523873
0.00012506476
0.00012480187
0.00012462848
0.00012437315
0.00012418843
0.00012395225
0.0001237691
0.0001235665
0.00012341335
0.0001232448
0.00012313065
0.00012296534
0.00012285464
0.00012264525
0.00012248118
0.00012219498
0.0001219515
0.00012160263
0.00012131711
0.00012097264
0.00012072126
0.00012048139
0.00012034262
0.00012030658
0.00012034875
0.00012057986
0.00012085576
0.00012135784
0.00012192249
0.00012265877
0.00012352716
0.00012446836
0.00012559971
0.00012670376
0.00012804485
0.00012923012
0.00013060466
0.00013185478
0.00013325762
0.00013433875
0.00013564171
0.00013654841
0.00013757789
0.00013822799
0.00013899412
0.00013946215
0.00013978126
0.00014003442
0.00013997342
0.00013999303
0.00013968332
0.00013954364
0.00013903353
0.00013879688
0.00013816604
0.00013801581
0.00013738373
0.0001488938
0.00014712451
0.00014559183
0.00014421386
0.00014300364
0.00014187678
0.00014088543
0.00013993269
0.00013909713
0.00013827406
0.00013755208
0.00013683199
0.00013619384
0.00013555934
0.00013498378
0.00013442189
0.0001338941
0.00013339397
0.0001329044
0.00013245588
0.0001319995
0.00013159236
0.00013116695
0.00013079222
0.00013039579
0.00013004809
0.00012967722
0.00012935489
0.00012900537
0.00012870697
0.00012837662
0.00012809634
0.00012778764
0.00012751536
0.00012723347
0.00012696093
0.00012670775
0.00012643526
0.00012620508
0.00012594225
0.00012572262
0.0001254823
0.00012525864
0.00012504677
0.00012480893
0.00012462026
0.00012436876
0.00012419526
0.00012394546
0.00012378924
0.00012356557
0.00012343673
0.00012324955
0.00012314345
0.00012296689
0.00012284762
0.000122629
0.00012244335
0.00012215033
0.00012187903
0.00012153678
0.00012122113
0.00012091551
0.00012065153
0.00012050997
0.00012041045
0.00012054549
0.00012067676
0.00012113384
0.00012148313
0.00012220783
0.00012268917
0.0001235487
0.00012405941
0.00012491547
0.00012538705
0.00012614865
0.00012657539
0.00012718256
0.00012762703
0.00012813518
0.00012867885
0.00012919791
0.00012990145
0.00013051535
0.00013138822
0.00013210804
0.00013310401
0.00013386177
0.00013487372
0.00013558731
0.00013654116
0.00013716797
0.00013805684
0.00013858885
0.00013947671
0.0001398898
0.00014076193
0.00014102638
0.00014101855
0.00014889336
0.00014712534
0.00014559013
0.00014421628
0.00014299991
0.00014188145
0.00014087942
0.00013993951
0.00013908948
0.000138282
0.00013754405
0.00013683974
0.00013618656
0.00013556593
0.00013497781
0.00013442689
0.00013388962
0.00013339706
0.00013290172
0.00013245668
0.00013199916
0.00013159037
0.00013116973
0.00013078663
0.00013040281
0.00013003779
0.00012968958
0.00012933909
0.00012902342
0.00012868599
0.00012839927
0.00012807189
0.00012781254
0.00012748909
0.00012725924
0.00012693305
0.00012673615
0.00012640512
0.00012623937
0.00012590876
0.00012576305
0.00012544316
0.00012529914
0.00012500127
0.00012484168
0.0001245758
0.00012439261
0.00012416911
0.00012396654
0.00012379509
0.00012358501
0.00012346393
0.00012325488
0.00012315596
0.00012294421
0.00012281559
0.00012258002
0.00012238043
0.00012210344
0.00012183955
0.00012152256
0.0001212627
0.00012094596
0.00012080382
0.00012057035
0.00012066278
0.00012061173
0.00012101777
0.00012123738
0.00012192803
0.00012242477
0.00012323134
0.00012387493
0.00012456555
0.00012515913
0.00012555055
0.0001259402
0.0001259967
0.00012613579
0.00012593165
0.0001258761
0.00012555764
0.00012543087
0.00012511589
0.00012504708
0.00012481554
0.00012487053
0.00012475752
0.00012493401
0.00012494247
0.00012519451
0.00012528189
0.00012552845
0.00012559946