/*--------------------------------*- C++ -*----------------------------------*\
| =========                 |                                                 |
| \\      /  F ield         | OpenFOAM: The Open Source CFD Toolbox           |
|  \\    /   O peration     | Version:  2406                                  |
|   \\  /    A nd           | Website:  www.openfoam.com                      |
|    \\/     M anipulation  |                                                 |
\*---------------------------------------------------------------------------*/
FoamFile
{
    version     2.0;
    format      ascii;
    arch        "LSB;label=32;scalar=64";
    class       volScalarField;
    location    "100";
    object      omega;
}
// * * * * * * * * * * * * * * * * * * * * * * * * * * * * * * * * * * * * * //

dimensions      [0 0 -1 0 0 0 0];

internalField   nonuniform List<scalar> 
16045
(
367.88913
320.04286
283.07862
253.69222
229.789
209.97212
193.2855
179.04017
166.74656
156.02022
146.59499
138.22908
130.77845
124.07123
118.0367
112.53941
107.55377
102.96678
98.778517
94.894404
91.325546
87.996064
84.917136
82.03334
79.348217
76.827986
74.464411
72.244065
70.147394
68.176118
66.304662
64.541267
62.862442
61.273798
59.761036
58.32103
56.95181
55.639997
54.395078
53.194998
52.058262
50.956119
49.914231
48.898399
47.940046
47.001058
46.116187
45.246479
44.425881
43.619273
42.854336
42.10573
41.388445
40.693602
40.017463
39.372201
38.733885
38.133066
37.533216
36.971045
36.412756
35.88469
35.370745
34.874891
34.406052
33.942117
33.517059
33.083861
32.69951
32.293466
31.945274
31.560691
31.243364
30.874004
30.58228
30.22342
29.952266
29.602022
29.346668
29.005742
28.762307
28.43254
28.198969
27.88208
27.658203
27.355322
27.142337
26.853005
26.653478
26.374725
26.19118
25.91964
25.751147
25.485642
25.327841
25.067612
24.913522
24.656506
24.542173
24.096989
367.88891
320.04318
283.07818
253.69255
229.78825
209.97257
193.28434
179.04098
166.74477
156.02163
146.59241
138.23127
130.77507
124.07408
118.03272
112.54259
107.54958
102.9699
98.774629
94.897085
91.322338
87.997879
84.914914
82.033958
79.347285
76.827217
74.464982
72.241845
70.149503
68.172465
66.308173
64.53639
62.866957
61.268261
59.765829
58.315721
56.955972
55.635826
54.397845
53.192537
52.059289
50.955446
49.913594
48.899168
47.938039
47.00299
46.112853
45.249583
44.421389
43.623465
42.849496
42.110489
41.384634
40.697935
40.015666
39.374928
38.733569
38.133305
37.532157
36.968328
36.408589
35.878513
35.362297
34.865083
34.392986
33.929273
33.500089
33.068459
32.67872
32.275716
31.921359
31.541239
31.218448
30.85434
30.559993
30.206261
29.937148
29.59131
29.343247
29.005821
28.774566
28.447412
28.229176
27.913553
27.706279
27.402363
27.205476
26.912232
26.725923
26.440789
26.265278
25.985144
25.81905
25.542446
25.382864
25.109259
24.951738
24.681187
24.561352
24.11109
367.88879
320.04337
283.07805
253.6927
229.788
209.97287
193.28374
179.0416
166.74373
156.0226
146.59105
138.23241
130.77356
124.07533
118.031
112.54411
107.54745
102.97188
98.772059
94.89932
91.319828
87.999618
84.91336
82.034358
79.3473
76.826065
74.466368
72.23969
70.151489
68.170127
66.310151
64.534062
62.869183
61.265389
59.768844
58.312117
56.959351
55.632517
54.40012
53.191077
52.059203
50.956457
49.911332
48.901733
47.935178
47.004939
46.11164
45.248946
44.422745
43.620208
42.852334
42.106091
41.387319
40.693632
40.018677
39.37055
38.740226
38.129082
37.545433
36.967247
36.426637
35.883554
35.376376
34.872134
34.386896
33.922342
33.450577
33.019575
32.559711
32.154178
31.708792
31.321076
30.894875
30.519761
30.118345
29.752342
29.382629
29.021622
28.691226
28.331909
28.043543
27.687734
27.43628
27.090713
26.866446
26.536723
26.332078
26.018058
25.829954
25.528223
25.354223
25.062661
24.899712
24.616953
24.463198
24.187611
24.039956
23.770271
23.656355
23.250765
367.88871
320.04348
283.07781
253.693
229.78744
209.97347
193.2827
179.04268
166.74204
156.02432
146.58859
138.23481
130.77041
124.07819
118.02756
112.54693
107.54432
102.97407
98.76978
94.900466
91.318589
87.999774
84.912969
82.033808
79.347559
76.82492
74.467265
72.237985
70.152902
68.168138
66.311545
64.532622
62.869548
61.265428
59.767643
58.313587
56.957256
55.634285
54.398541
53.191668
52.059446
50.954959
49.913802
48.898219
47.939416
47.00006
46.116826
45.243226
44.428556
43.613607
42.858978
42.0989
41.394844
40.687139
40.025721
39.367075
38.743708
38.129466
37.543056
36.968109
36.419228
35.879476
35.368538
34.860444
34.386071
33.906581
33.465904
33.01162
32.603044
32.171816
31.794018
31.382923
31.03568
30.643673
30.32609
29.952747
29.662219
29.306323
29.039366
28.699109
28.451841
28.127044
27.895653
27.588364
27.371319
27.083122
26.882733
26.61287
26.43269
26.179575
26.018561
25.782002
25.634841
25.411006
25.269534
25.055494
24.917966
24.710383
24.527419
24.197189
367.8886
320.04365
283.07762
253.69314
229.78728
209.97346
193.28266
179.0425
166.74209
156.02407
146.58856
138.23468
130.77015
124.07826
118.02711
112.54706
107.54393
102.97395
98.76974
94.89988
91.319122
87.998521
84.914284
82.031742
79.349705
76.822177
74.469837
72.235328
70.15478
68.166965
66.311328
64.534024
62.866731
61.269285
59.763024
58.31836
56.953038
55.637448
54.396995
53.191782
52.060837
50.952861
49.916458
48.896065
47.940985
47.000001
46.115633
45.246198
44.424337
43.619038
42.853205
42.104638
41.390351
40.69067
40.024949
39.367141
38.746515
38.126844
37.545684
36.964251
36.416299
35.874501
35.355879
34.854149
34.36457
33.902934
33.444025
33.021697
32.597151
32.209136
31.824566
31.460956
31.119893
30.769681
30.469599
30.125272
29.857246
29.516272
29.269471
28.933114
28.699922
28.370657
28.14933
27.82855
27.621549
27.308864
27.11805
26.812037
26.635584
26.333479
26.166825
25.865708
25.704511
25.400778
25.241362
24.933768
24.775606
24.466597
24.313923
23.921011
367.88895
320.04307
283.07813
253.69245
229.78785
209.97267
193.28328
179.04159
166.7428
156.02298
146.58939
138.23342
130.77105
124.07691
118.028
112.54576
107.54464
102.97292
98.770017
94.899409
91.318634
87.999022
84.912649
82.033543
79.346782
76.825246
74.465907
72.239159
70.150555
68.170767
66.307536
64.537328
62.863565
61.272054
59.760467
58.320746
56.950809
55.639714
54.395029
53.193639
52.059709
50.953627
49.916728
48.895287
47.942921
46.997717
46.118836
45.243111
44.428131
43.615802
42.856923
42.101866
41.393103
40.688977
40.025683
39.366863
38.744718
38.127642
37.542266
36.965509
36.413922
35.876438
35.358471
34.859008
34.376609
33.913356
33.469934
33.039585
32.638464
32.236907
31.87862
31.500907
31.182338
30.824464
30.540556
30.200482
29.942974
29.620026
29.381287
29.074764
28.851093
28.558308
28.345821
28.06306
27.858295
27.581495
27.384025
27.108989
26.917827
26.643391
26.456342
26.183055
25.999658
25.729458
25.554713
25.289804
25.128982
24.870351
24.68616
24.340272
367.88878
320.04334
283.07805
253.69234
229.78822
209.97184
193.28443
179.03978
166.74485
156.02017
146.59226
138.22984
130.77447
124.07293
118.03153
112.54186
107.54782
102.96955
98.772422
94.896999
91.31989
87.997965
84.912371
82.034274
79.344574
76.828074
74.461724
72.243739
70.145276
68.175772
66.302794
64.541155
62.860597
61.274164
59.759017
58.322081
56.949475
55.64185
54.392321
53.197721
52.054927
50.959861
49.909978
48.903401
47.93448
47.007258
46.109442
45.253082
44.419092
43.62487
42.84964
42.108786
41.388184
40.693172
40.022408
39.368652
38.741778
38.127906
37.539467
36.965573
36.412474
35.878199
35.360758
34.863335
34.384501
33.919481
33.482057
33.045148
32.650492
32.238286
31.884823
31.497134
31.18077
30.817776
30.531585
30.192779
29.930539
29.615958
29.371911
29.077419
28.847598
28.568194
28.351935
28.079406
27.876815
27.603219
27.414299
27.13555
26.958634
26.676098
26.507888
26.226003
26.063481
25.785758
25.627094
25.354686
25.201341
24.934194
24.750216
24.402135
367.88873
320.04339
283.07792
253.69254
229.78783
209.97233
193.28358
179.04068
166.74346
156.02151
146.59038
138.23151
130.77226
124.07477
118.02917
112.54373
107.54538
102.97149
98.769833
94.899139
91.317035
88.000402
84.909288
82.036849
79.341624
76.830242
74.45966
72.244785
70.144637
68.175522
66.303409
64.540105
62.861821
61.273037
59.760126
58.321516
56.949976
55.642139
54.392095
53.198803
52.054135
50.961479
49.908924
48.905201
47.933517
47.008911
46.108676
45.254534
44.418268
43.626243
42.848467
42.110274
41.386747
40.694932
40.021528
39.370576
38.742771
38.129318
37.542874
36.964969
36.416995
35.873345
35.362862
34.852292
34.380444
33.901627
33.470682
33.022896
32.633731
32.217216
31.867884
31.481302
31.1661
30.807523
30.519289
30.185156
29.917611
29.603031
29.351619
29.049425
28.809665
28.513856
28.282795
27.990219
27.76714
27.477859
27.263124
26.979531
26.775138
26.499398
26.308351
26.042058
25.86542
25.609104
25.445171
25.198596
25.047504
24.808875
24.629848
24.297321
367.88901
320.04296
283.07847
253.69176
229.78871
209.97118
193.2847
179.03927
166.74463
156.02009
146.59133
138.23032
130.77279
124.07396
118.02923
112.54326
107.54514
102.97112
98.769612
94.898557
91.317171
87.999347
84.909996
82.035246
79.342889
76.828339
74.461047
72.243244
70.145398
68.17516
66.302825
64.54149
62.85958
61.276205
59.756555
58.325768
56.946087
55.646274
54.389059
53.201845
52.052552
50.963154
49.908689
48.905914
47.933976
47.009482
46.109066
45.255608
44.418084
43.627962
42.847456
42.11231
41.384739
40.697082
40.0184
39.373293
38.738731
38.133868
37.538775
36.972775
36.414437
35.884728
35.363432
34.865741
34.383843
33.913984
33.474254
33.029261
32.633284
32.212758
31.859419
31.465934
31.150013
30.784384
30.499506
30.157525
29.894909
29.570576
29.322728
29.01064
28.773646
28.471235
28.243261
27.950458
27.729941
27.447818
27.232965
26.961208
26.75164
26.487495
26.285329
26.025442
25.834177
25.577501
25.400121
25.147642
24.983103
24.735065
24.623193
24.175807
367.88887
320.04316
283.07802
253.6924
229.78768
209.97242
193.28299
179.04111
166.74229
156.02238
146.58854
138.23286
130.76978
124.07652
118.02624
112.5456
107.54241
102.97302
98.767401
94.899775
91.315725
87.999734
84.909382
82.034941
79.342815
76.827896
74.460794
72.24352
70.144224
68.176713
66.300534
64.544118
62.8569
61.278718
59.75493
58.326787
56.946613
55.645086
54.392078
53.198288
52.058034
50.957576
49.915741
48.89964
47.940964
47.004109
46.1147
45.251924
44.422216
43.625556
42.851005
42.109949
41.388843
40.693468
40.023725
39.367573
38.745365
38.126043
37.546467
36.963956
36.422569
35.877304
35.370713
34.862801
34.388905
33.917469
33.476566
33.038661
32.634111
32.224981
31.859008
31.474491
31.144303
30.781114
30.4787
30.13241
29.848806
29.510634
29.238905
28.902015
28.639599
28.301594
28.048022
27.711817
27.466711
27.136985
26.900671
26.579249
26.353711
26.039002
25.826789
25.517369
25.320142
25.015194
24.833376
24.532915
24.365067
24.071209
23.944146
23.520361
367.88862
320.04357
283.07767
253.69266
229.78752
209.97226
193.28319
179.04039
166.74291
156.02114
146.58949
138.23128
130.77081
124.07494
118.02698
112.54445
107.54243
102.97274
98.766284
94.900781
91.313164
88.0022
84.905486
82.038554
79.338175
76.831879
74.456512
72.246609
70.141708
68.177579
66.300948
64.542064
62.860382
61.274171
59.76063
58.320985
56.952968
55.639713
54.397411
53.194889
52.061056
50.956819
49.916619
48.900467
47.941242
47.004656
46.11587
45.250903
44.424898
43.622952
42.854754
42.107151
41.392874
40.692209
40.027557
39.368539
38.748739
38.127759
37.548572
36.963348
36.421475
35.871393
35.364076
34.850168
34.375282
33.898798
33.455752
33.015336
32.60529
32.196309
31.820387
31.436879
31.09321
30.730095
30.413211
30.066214
29.769456
29.434705
29.153982
28.82621
28.560057
28.234963
27.982674
27.659349
27.419462
27.099541
26.871393
26.556325
26.341529
26.032294
25.832949
25.531148
25.347626
25.055524
24.886
24.603592
24.443238
24.168558
24.047912
23.611442
367.88928
320.04246
283.07873
253.69128
229.78878
209.97071
193.28448
179.03877
166.74406
156.01962
146.59033
138.23003
130.77123
124.074
118.02704
112.54367
107.54241
102.97174
98.766672
94.899055
91.314498
87.999333
84.908063
82.034472
79.341985
76.826761
74.461324
72.240856
70.147055
68.171856
66.306085
64.537222
62.864422
61.271254
59.76252
58.320766
56.95242
55.642023
54.394857
53.199135
52.057077
50.962399
49.911708
48.906848
47.935991
47.011118
46.110998
45.256929
44.420576
43.628647
42.85056
42.11292
41.388081
40.69829
40.021707
39.374578
38.742115
38.133019
37.542249
36.967427
36.417331
35.874768
35.365163
34.854719
34.385501
33.90866
33.479081
33.036533
32.64532
32.235683
31.87895
31.497752
31.170079
30.81193
30.505841
30.166355
29.874946
29.551371
29.2718
28.962266
28.696553
28.399347
28.151837
27.864695
27.639115
27.358716
27.156336
26.879819
26.69814
26.425558
26.259161
25.99336
25.836133
25.579945
25.427667
25.180856
25.028664
24.787859
24.676315
24.21826
367.88871
320.04338
283.07757
253.69263
229.78712
209.97233
193.28256
179.04032
166.74229
156.02065
146.58912
138.23019
130.77085
124.07317
118.02746
112.54205
107.54335
102.96967
98.767857
94.896701
91.315957
87.996567
84.910123
82.030907
79.345153
76.821983
74.465923
72.234892
70.152745
68.165498
66.31179
64.531816
62.868819
61.267948
59.76479
58.320094
56.952356
55.643779
54.393144
53.202014
52.055474
50.964335
49.91217
48.906227
47.939381
47.007825
46.116619
45.25232
44.426571
43.62466
42.855145
42.110759
41.390449
40.698092
40.021629
39.376525
38.738762
38.138112
37.53462
36.97655
36.405755
35.887798
35.352165
34.870938
34.375499
33.927107
33.477431
33.056909
32.657535
32.260057
31.909997
31.532068
31.224808
30.864493
30.591547
30.245913
29.996277
29.663697
29.42978
29.108429
28.887521
28.575822
28.368275
28.065568
27.871584
27.578234
27.395561
27.112508
26.936542
26.664024
26.490575
26.226454
26.054954
25.794937
25.628482
25.369539
25.208001
24.950681
24.835494
24.37587
367.88889
320.04302
283.07807
253.69198
229.78783
209.97143
193.28329
179.03934
166.74283
156.01974
146.58939
138.22932
130.77101
124.07204
118.02799
112.54005
107.54493
102.96619
98.770997
94.891534
91.320566
87.990172
84.915489
82.024342
79.350072
76.816665
74.469106
72.231935
70.153613
68.164989
66.310905
64.532788
62.867442
61.269165
59.764083
58.320535
56.95313
55.64289
54.395559
53.200075
52.058725
50.962421
49.915017
48.905328
47.941174
47.008042
46.117719
45.252654
44.428333
43.623568
42.858843
42.107363
41.396455
40.692584
40.029398
39.369543
38.747811
38.129874
37.54467
36.967191
36.416302
35.877905
35.362106
34.861281
34.383522
33.918383
33.482817
33.049832
32.659748
32.254733
31.910331
31.530164
31.22784
30.871356
30.604347
30.271147
30.032295
29.720244
29.503686
29.208303
29.009418
28.725088
28.539366
28.260906
28.083518
27.80708
27.633583
27.356954
27.184865
26.907159
26.736846
26.458351
26.291411
26.013665
25.850792
25.575142
25.413466
25.140672
25.018868
24.551914
367.88905
320.04281
283.07815
253.69181
229.78776
209.97136
193.28297
179.03938
166.74224
156.01983
146.5886
138.22938
130.7701
124.07207
118.02684
112.54032
107.54318
102.9672
98.768071
94.893923
91.315907
87.994455
84.908794
82.030692
79.341481
76.82478
74.459197
72.241227
70.143056
68.174955
66.300144
64.543156
62.856823
61.279526
59.754118
58.330482
56.944054
55.652384
54.38725
53.209152
52.051292
50.970608
49.90919
48.911573
47.938046
47.011198
46.118085
45.252177
44.432106
43.619968
42.864971
42.10202
41.403367
40.68732
40.035735
39.365916
38.752586
38.129191
37.547075
36.970078
36.415758
35.883541
35.358119
34.866939
34.374863
33.919342
33.466359
33.040587
32.631236
32.229712
31.865651
31.484219
31.163305
30.799512
30.515862
30.168833
29.914811
29.583337
29.352226
29.033569
28.820772
28.511502
28.313464
28.011186
27.824125
27.527858
27.348068
27.057366
26.882444
26.596626
26.426147
26.144318
25.97888
25.700603
25.540412
25.265177
25.107551
24.835748
24.715766
24.268783
367.88877
320.04316
283.07786
253.69207
229.78751
209.9714
193.28277
179.03917
166.74202
156.01948
146.5882
138.22913
130.76921
124.0723
118.02506
112.54147
107.54013
102.96949
98.763784
94.89704
91.311044
87.997565
84.904374
82.032838
79.338469
76.825248
74.458198
72.239745
70.144271
68.171558
66.303584
64.538004
62.862235
61.273122
59.760927
58.32345
56.95169
55.645221
54.395222
53.202395
52.05884
50.965176
49.915122
48.908668
47.941052
47.011718
46.11742
45.256116
44.428052
43.626432
42.858823
42.109807
41.397273
40.695195
40.032032
39.372793
38.752664
38.133518
37.550326
36.969664
36.418745
35.87589
35.354972
34.84956
34.359094
33.889639
33.432529
32.99525
32.574657
32.164592
31.781157
31.394068
31.045258
30.678104
30.358816
30.008322
29.71377
29.376869
29.102134
28.775545
28.515593
28.197971
27.948504
27.639251
27.398922
27.096273
26.866846
26.568238
26.351902
26.055644
25.85311
25.558849
25.369733
25.078152
24.902122
24.614381
24.449775
24.167631
24.044832
23.615484
367.88889
320.04302
283.07781
253.69203
229.78719
209.97156
193.28206
179.03959
166.74082
156.02019
146.58651
138.23001
130.76727
124.07297
118.02338
112.54133
107.53929
102.96808
98.764132
94.894292
91.312458
87.993834
84.906446
82.028674
79.340755
76.821131
74.460442
72.235953
70.146356
68.168367
66.305242
64.535848
62.863208
61.272246
59.761126
58.323884
56.951237
55.646671
54.39453
53.204226
52.058567
50.966597
49.915851
48.909155
47.942907
47.011347
46.119914
45.255581
44.430351
43.626496
42.860273
42.111007
41.397227
40.698029
40.02984
39.377685
38.748254
38.140307
37.544906
36.976745
36.414616
35.880214
35.354221
34.848016
34.362115
33.881131
33.43758
32.981705
32.580133
32.150012
31.787748
31.383
31.055089
30.673611
30.37395
30.012968
29.733671
29.389178
29.125523
28.796352
28.543075
28.227725
27.982006
27.677597
27.439346
27.144058
26.914299
26.622601
26.404663
26.113917
25.909978
25.620911
25.431355
25.145717
24.969992
24.68943
24.529085
24.254959
24.078589
23.740677
367.88876
320.04315
283.07749
253.69241
229.78646
209.97224
193.28083
179.04047
166.73927
156.02096
146.58496
138.23036
130.76596
124.07277
118.02229
112.54077
107.53815
102.9675
98.762606
94.894012
91.310335
87.99403
84.903772
82.02926
79.33782
76.821884
74.457591
72.236707
70.143838
68.169024
66.303354
64.536167
62.862375
61.271846
59.761821
58.322427
56.953636
55.644228
54.398183
53.201549
52.062334
50.964778
49.918671
48.908775
47.944528
47.012178
46.120794
45.25702
44.430954
43.628276
42.860482
42.11314
41.396549
40.700326
40.027907
39.379548
38.745337
38.141562
37.541955
36.978902
36.413741
35.886427
35.358891
34.861623
34.376195
33.904013
33.463238
33.01316
32.614656
32.186275
31.823999
31.417588
31.083882
30.699712
30.387253
30.02515
29.729424
29.387982
29.107037
28.783321
28.518056
28.208118
27.961939
27.6624
27.438617
27.147389
26.947409
26.66496
26.485285
26.211893
26.046114
25.780797
25.623081
25.364294
25.21124
24.957696
24.81031
24.561674
24.383493
24.047452
367.88875
320.04319
283.07761
253.69206
229.7869
209.97133
193.28161
179.03907
166.74008
156.0195
146.58519
138.22953
130.7649
124.07319
118.01955
112.54245
107.5341
102.96977
98.75809
94.896054
91.306086
87.995378
84.900088
82.029865
79.334841
76.821644
74.455744
72.235198
70.143817
68.165868
66.305391
64.531765
62.865744
61.26741
59.765279
58.319152
56.95634
55.642571
54.400072
53.201081
52.063944
50.964884
49.920137
48.909595
47.945023
47.014694
46.119016
45.26213
44.426579
43.635283
42.855425
42.119194
41.39443
40.701798
40.031492
39.374402
38.754247
38.130514
37.553189
36.965032
36.423702
35.874686
35.365199
34.85811
34.378083
33.913224
33.461574
33.033688
32.610974
32.210171
31.816767
31.430251
31.063817
30.686037
30.338726
29.972188
29.634205
29.28168
28.953255
28.608739
28.302293
27.956158
27.681862
27.333586
27.089504
26.747202
26.524788
26.194897
25.988893
25.672423
25.481253
25.176715
24.999877
24.7047
24.540071
24.252817
24.099716
23.819157
23.652113
23.326676
367.88857
320.04337
283.07708
253.6926
229.78588
209.97221
193.28009
179.0401
166.73827
156.02032
146.58351
138.22965
130.76384
124.07213
118.01949
112.54003
107.53499
102.9663
98.759415
94.892212
91.307132
87.991929
84.900263
82.027328
79.333935
76.820135
74.454009
72.234438
70.141821
68.165441
66.303698
64.531506
62.86444
61.267749
59.763793
58.32092
56.953897
55.646316
54.396456
53.206369
52.060042
50.970142
49.917622
48.912916
47.945472
47.01466
46.12316
45.258518
44.433567
43.629691
42.862506
42.11484
41.398178
40.701919
40.030077
39.380539
38.748383
38.141779
37.545006
36.97792
36.414748
35.88375
35.355826
34.857978
34.369242
33.903734
33.456745
33.025718
32.617307
32.222047
31.846398
31.484356
31.132635
30.795117
30.460393
30.131924
29.812043
29.4776
29.172125
28.818884
28.528253
28.158396
27.880608
27.504845
27.240725
26.870537
26.623145
26.263597
26.034472
25.688501
25.476836
25.144098
24.947862
24.627004
24.445601
24.134358
23.965994
23.663598
23.533107
23.112851
367.88856
320.0434
283.07705
253.69249
229.78587
209.97186
193.28009
179.03943
166.73831
156.01924
146.58369
138.22799
130.76433
124.0697
118.02038
112.5368
107.53613
102.96259
98.760382
94.88854
91.307433
87.98879
84.899547
82.025108
79.331984
76.819208
74.450587
72.235238
70.136769
68.168193
66.297314
64.535795
62.857754
61.272489
59.758223
58.324865
56.950639
55.648536
54.396015
53.206754
52.061832
50.969394
49.920566
48.911861
47.948673
47.013746
46.126371
45.257495
44.437153
43.627696
42.867178
42.111018
41.404328
40.69633
40.037616
39.374057
38.757368
38.135339
37.555358
36.972107
36.425563
35.877795
35.364694
34.848988
34.371642
33.886036
33.446825
32.991821
32.591337
32.169728
31.805782
31.417895
31.087414
30.729055
30.426857
30.093131
29.813787
29.495131
29.235573
28.928218
28.684741
28.38268
28.149756
27.852967
27.6247
27.334303
27.110848
26.829376
26.61588
26.344606
26.146186
25.887354
25.705763
25.459998
25.293284
25.05933
24.907554
24.682692
24.498922
24.163275
367.88908
320.04247
283.07797
253.69115
229.78704
209.97019
193.28124
179.03765
166.73908
156.01766
146.58374
138.22685
130.76348
124.069
118.01876
112.53626
107.53416
102.9616
98.758783
94.886306
91.307036
87.984656
84.900762
82.019164
79.334324
76.812546
74.452817
72.229498
70.13755
68.164788
66.295958
64.5352
62.854646
61.274138
59.75437
58.327974
56.946613
55.653029
54.391387
53.213187
52.055741
50.978316
49.912457
48.923003
47.939078
47.025889
46.116545
45.269237
44.428273
43.63828
42.859574
42.120539
41.397349
40.705156
40.030375
39.382094
38.749739
38.141984
37.548724
36.976749
36.422303
35.880691
35.366483
34.851177
34.378194
33.888279
33.455506
32.9925
32.598798
32.163665
31.809026
31.400954
31.084661
30.702422
30.420924
30.063298
29.810114
29.475343
29.243899
28.92739
28.711764
28.409339
28.204686
27.9125
27.715495
27.430868
27.240309
26.962329
26.777621
26.507832
26.328176
26.069327
25.89571
25.647871
25.483118
25.245469
25.093687
24.863328
24.680032
24.349748
367.88907
320.0425
283.07794
253.69104
229.787
209.96987
193.28119
179.03697
166.73913
156.01637
146.5841
138.22467
130.76432
124.06587
118.01993
112.53248
107.53516
102.95782
98.75883
94.883368
91.305342
87.983174
84.897148
82.018972
79.329586
76.812582
74.448461
72.228395
70.135117
68.161587
66.296344
64.529847
62.85783
61.26734
59.759807
58.3206
56.953599
55.645755
54.399227
53.206463
52.063774
50.972397
49.920013
48.91835
47.945204
47.02321
46.120399
45.268965
44.429664
43.640205
42.85917
42.123574
41.39655
40.707327
40.030591
39.381311
38.751535
38.137149
37.551901
36.968926
36.426513
35.873558
35.372708
34.850389
34.389989
33.899779
33.478525
33.020696
32.637624
32.211624
31.865163
31.469325
31.156381
30.788727
30.504338
30.162643
29.90163
29.582282
29.341402
29.038673
28.81671
28.523435
28.319674
28.028608
27.840283
27.547554
27.36905
27.076168
26.90089
26.611758
26.436714
26.154045
25.980792
25.705878
25.537846
25.270527
25.107916
24.846939
24.729778
24.276452
367.88824
320.04371
283.07666
253.69244
229.78542
209.97117
193.27949
179.03794
166.73739
156.01695
146.58221
138.22505
130.76199
124.06629
118.01695
112.53296
107.53163
102.95804
98.755208
94.88272
91.302257
87.981145
84.89494
82.015618
79.327854
76.808931
74.446021
72.226061
70.130749
68.161768
66.289957
64.5323
62.850921
61.270429
59.754791
58.322149
56.952645
55.6441
54.403289
53.201175
52.072153
50.964457
49.9309
48.909275
47.95684
47.014207
46.13165
45.260621
44.440063
43.63238
42.868529
42.115896
41.404663
40.69965
40.037862
39.373747
38.759544
38.130618
37.562281
36.965382
36.439638
35.87484
35.386268
34.855884
34.398443
33.905214
33.473544
33.020537
32.61094
32.197547
31.81197
31.432972
31.076184
30.721735
30.398283
30.057188
29.767566
29.431672
29.17003
28.836191
28.595335
28.262732
28.034711
27.703898
27.485738
27.156504
26.948843
26.621338
26.42512
26.100863
25.91579
25.596582
25.421378
25.108435
24.941339
24.634452
24.473006
24.172056
24.042159
23.61601
367.88845
320.04336
283.07672
253.69201
229.78543
209.97049
193.27958
179.03682
166.73763
156.01534
146.58251
138.22297
130.76221
124.06379
118.01701
112.53002
107.53151
102.95464
98.754799
94.879069
91.301157
87.977792
84.892503
82.013193
79.32384
76.807275
74.441385
72.223952
70.127351
68.157834
66.289193
64.526535
62.852479
61.264651
59.756704
58.319072
56.95265
55.645442
54.400605
53.206199
52.068288
50.970208
49.928593
48.912577
47.958014
47.013745
46.13609
45.257735
44.445483
43.629988
42.872069
42.11666
41.404084
40.705164
40.03159
39.384586
38.746959
38.145714
37.543981
36.982411
36.416633
35.892215
35.359932
34.874588
34.372743
33.92847
33.457464
33.052334
32.616559
32.242348
31.847183
31.491922
31.138348
30.790618
30.472275
30.124838
29.828851
29.481509
29.195913
28.843776
28.567095
28.208164
27.943747
27.580756
27.328814
26.969958
26.728912
26.38037
26.151235
25.814378
25.599271
25.273332
25.07361
24.756865
24.573306
24.264274
24.094931
23.794204
23.664379
23.241527
367.88853
320.0431
283.07717
253.6913
229.78618
209.96928
193.28039
179.03529
166.73817
156.01373
146.58247
138.22148
130.76137
124.06255
118.0152
112.52911
107.52865
102.95396
98.751032
94.878247
91.297006
87.976097
84.88887
82.009675
79.321667
76.80136
74.441036
72.215959
70.128495
68.148899
66.291026
64.518265
62.854109
61.258576
59.757615
58.315901
56.952997
55.644867
54.400766
53.207447
52.068387
50.97261
49.928473
48.915748
47.957457
47.017374
46.135025
45.261361
44.444191
43.633019
42.871261
42.118317
41.404908
40.704493
40.035319
39.380962
38.753675
38.139933
37.55233
36.976103
36.425401
35.885646
35.369414
34.865218
34.382901
33.912068
33.464868
33.023782
32.614102
32.199334
31.828795
31.437562
31.10563
30.736006
30.438656
30.089763
29.819623
29.490022
29.239989
28.925961
28.690041
28.38741
28.162604
27.86822
27.65193
27.364388
27.154526
26.873413
26.669341
26.394271
26.197385
25.927814
25.740677
25.476662
25.30155
25.043481
24.878745
24.625835
24.511788
24.054064
367.88874
320.04278
283.07738
253.69078
229.78644
209.96839
193.28089
179.03365
166.73921
156.01092
146.58428
138.21734
130.76384
124.05727
118.01787
112.52318
107.53085
102.94799
98.752151
94.872633
91.296729
87.970909
84.887207
82.004819
79.318737
76.796845
74.436901
72.212095
70.123095
68.146334
66.284483
64.51752
62.847088
61.259766
59.751078
58.318869
56.947575
55.649379
54.396233
53.213566
52.063585
50.980862
49.922046
48.926503
47.948887
47.029925
46.12527
45.27373
44.435168
43.643066
42.864528
42.125098
41.400837
40.708523
40.033245
39.383485
38.752795
38.141618
37.552267
36.976552
36.426496
35.884672
35.372835
34.864934
34.391144
33.917494
33.482569
33.0422
32.647001
32.237167
31.880642
31.497453
31.175854
30.814689
30.522958
30.179427
29.911749
29.582732
29.334886
29.018038
28.784151
28.47846
28.254645
27.959418
27.743537
27.456572
27.248938
26.966596
26.769103
26.488418
26.301991
26.022564
25.84628
25.569114
25.401697
25.127975
24.971037
24.702179
24.52133
24.177386
367.8894
320.04161
283.07851
253.68923
229.7878
209.96658
193.2821
179.03176
166.73994
156.00912
146.58433
138.21564
130.76318
124.05561
118.01646
112.52158
107.52844
102.94668
98.748257
94.872007
91.290877
87.971247
84.879201
82.006031
79.308844
76.798491
74.425727
72.213775
70.111342
68.147953
66.273017
64.519115
62.837265
61.261015
59.744726
58.319057
56.945973
55.648082
54.399129
53.210966
52.069488
50.977638
49.928664
48.924045
47.954068
47.029161
46.128513
45.273744
44.437962
43.64194
42.868493
42.122422
41.405605
40.706935
40.036385
39.386241
38.752737
38.149275
37.549717
36.986658
36.421293
35.892744
35.361157
34.863928
34.366545
33.898739
33.436902
32.998976
32.572276
32.166306
31.774025
31.395346
31.039089
30.676339
30.353096
29.996283
29.692822
29.340398
29.043361
28.691047
28.398263
28.038601
27.755287
27.387148
27.115629
26.745751
26.486771
26.120417
25.877035
25.5159
25.289395
24.935305
24.72489
24.378789
24.185045
23.847236
23.67153
23.343302
23.192041
22.82087
367.88841
320.04322
283.07662
253.69148
229.78496
209.96944
193.27832
179.03509
166.73535
156.01262
146.57923
138.21886
130.758
124.05794
118.01176
112.52229
107.52478
102.94509
98.746028
94.867745
91.290066
87.964429
84.879355
81.997179
79.309199
76.788439
74.425476
72.203371
70.110175
68.13782
66.271426
64.509744
62.83633
61.253008
59.745513
58.312977
56.948998
55.643897
54.404235
53.208139
52.075857
50.97548
49.935718
48.921284
47.961786
47.025147
46.136377
45.269564
44.444389
43.639493
42.872503
42.122427
41.408661
40.707044
40.042169
39.383099
38.762932
38.141409
37.561348
36.974717
36.429915
35.877604
35.364647
34.846251
34.365298
33.879319
33.433923
32.977895
32.571959
32.142807
31.777248
31.373752
31.0443
30.66422
30.364122
30.004882
29.726104
29.384269
29.118819
28.790973
28.533693
28.216915
27.964649
27.65696
27.407829
27.10794
26.862076
26.569656
26.32957
26.046572
25.817104
25.547079
25.33485
25.08065
24.891347
24.653128
24.485626
24.256619
24.153539
23.706794
367.88867
320.0427
283.07704
253.69081
229.78533
209.96862
193.2785
179.03413
166.73525
156.01146
146.57887
138.21735
130.75742
124.05595
118.01087
112.51985
107.52331
102.94235
98.743643
94.864769
91.286586
87.96105
84.874908
81.992972
79.304137
76.782799
74.420328
72.195851
70.105493
68.128596
66.267744
64.499908
62.834133
61.244495
59.745028
58.307845
56.949854
55.643151
54.405462
53.211193
52.076737
50.980737