/*--------------------------------*- C++ -*----------------------------------*\
| =========                 |                                                 |
| \\      /  F ield         | OpenFOAM: The Open Source CFD Toolbox           |
|  \\    /   O peration     | Version:  2406                                  |
|   \\  /    A nd           | Website:  www.openfoam.com                      |
|    \\/     M anipulation  |                                                 |
\*---------------------------------------------------------------------------*/
FoamFile
{
    version     2.0;
    format      ascii;
    arch        "LSB;label=32;scalar=64";
    class       volScalarField;
    location    "100";
    object      p;
}
// * * * * * * * * * * * * * * * * * * * * * * * * * * * * * * * * * * * * * //

dimensions      [0 2 -2 0 0 0 0];

internalField   nonuniform List<scalar> 
16045
(
1.7737289
1.7696944
1.7618616
1.7519003
1.7405161
1.7323075
1.7225804
1.6984457
1.6678847
1.6587769
1.6739881
1.6724721
1.6146537
1.5163707
1.4415575
1.4396704
1.494541
1.5339995
1.4876912
1.3412029
1.1460101
0.98386527
0.91537507
0.94680595
1.0308795
1.0954384
1.0804892
0.96428001
0.7688807
0.54650171
0.35606702
0.24098521
0.21596093
0.26593535
0.3546856
0.4386973
0.48076487
0.45945813
0.37279106
0.2359801
0.075470389
-0.078968104
-0.20141961
-0.27495039
-0.29385926
-0.26312297
-0.19594988
-0.11000722
-0.023561405
0.047912165
0.093933321
0.10983439
0.096501016
0.059146708
0.00583616
-0.054307446
-0.11247112
-0.16133659
-0.19571005
-0.21285903
-0.21245976
-0.19626714
-0.16759864
-0.13064806
-0.089861474
-0.049344883
-0.012480538
0.018319051
0.041675667
0.057151943
0.06509767
0.066388628
0.062244668
0.053985187
0.042939464
0.030298235
0.017117999
0.0042496376
-0.0076116237
-0.017964822
-0.02645479
-0.032894413
-0.037215325
-0.039478404
-0.039834708
-0.038533085
-0.035885516
-0.032265494
-0.028063908
-0.023679033
-0.01946834
-0.015730505
-0.012666753
-0.010348863
-0.0088127416
-0.0077561548
-0.0074978707
-0.0061927414
-0.0075612989
0.0024649905
1.7773404
1.7744243
1.7676046
1.7586261
1.747526
1.7395688
1.7313275
1.7089782
1.6784912
1.6678828
1.6824814
1.6829551
1.6286138
1.5324634
1.4567406
1.4518468
1.5042223
1.5438137
1.5003556
1.3576746
1.1650094
1.0027409
0.93166024
0.95939686
1.0403347
1.1034784
1.0889834
0.97444915
0.7808465
0.55936628
0.36839595
0.25129294
0.22324771
0.26985747
0.3555774
0.43737941
0.47820128
0.45656095
0.37012982
0.23380289
0.073671873
-0.080702352
-0.20348678
-0.2777327
-0.29757777
-0.26785164
-0.20156335
-0.11625764
-0.030126514
0.041388483
0.087737363
0.1042229
0.09160111
0.055045664
0.0024995454
-0.056935362
-0.11451391
-0.16292144
-0.1969707
-0.21391131
-0.21338129
-0.19710889
-0.16836314
-0.13132004
-0.090399331
-0.049701676
-0.012615142
0.018443446
0.042065675
0.057817103
0.066016515
0.067560364
0.063642577
0.055610249
0.044766433
0.032325683
0.019318763
0.006617455
-0.0051034402
-0.015325178
-0.023708305
-0.030050255
-0.034293938
-0.036487102
-0.036789717
-0.0354375
-0.032749965
-0.029087741
-0.024851423
-0.020427366
-0.01618632
-0.012416047
-0.0093367307
-0.0070107926
-0.0055000789
-0.0044961277
-0.0043518469
-0.003264966
-0.0051062661
0.0037496734
1.7839785
1.7814183
1.7749604
1.766114
1.7548257
1.7472278
1.7402795
1.718653
1.6869256
1.6743288
1.6888919
1.6921589
1.6411618
1.5457
1.4670122
1.457596
1.5072712
1.5479275
1.5085038
1.370115
1.1792352
1.0150736
0.93926716
0.96158046
1.0386152
1.1005626
1.0874461
0.97567134
0.78462412
0.56422807
0.37224832
0.25223883
0.22013909
0.26256651
0.34492231
0.42474236
0.46513355
0.44432474
0.35950321
0.22498651
0.066402111
-0.086975064
-0.20942838
-0.28391487
-0.30438217
-0.27538025
-0.2096767
-0.12464953
-0.038398323
0.033614179
0.080799609
0.098335777
0.086904723
0.05154525
0.00011777837
-0.05837465
-0.11523401
-0.16317226
-0.19699086
-0.21389277
-0.2134616
-0.19734693
-0.16875467
-0.13180438
-0.090887508
-0.050101852
-0.012848126
0.018413397
0.042247432
0.058178311
0.066530631
0.068192043
0.064387134
0.056459251
0.045730084
0.033394149
0.020485989
0.0078578021
-0.0038097363
-0.014012156
-0.022404331
-0.028791054
-0.033104074
-0.035391642
-0.035799178
-0.034559556
-0.031976718
-0.028411525
-0.02425419
-0.019897931
-0.015705246
-0.011976431
-0.0089289493
-0.0066482749
-0.0051954073
-0.00429297
-0.0042835677
-0.0034278002
-0.0053827613
0.0031936538
1.793234
1.7908497
1.7846969
1.7761856
1.7654727
1.7587562
1.7525659
1.73094
1.6985568
1.685823
1.7018594
1.7077059
1.6584195
1.5621637
1.4805329
1.4682316
1.5173787
1.5604885
1.525039
1.3896561
1.1988944
1.0316367
0.95083495
0.96835837
1.0425738
1.1043522
1.0931551
0.98402872
0.7948587
0.57448549
0.38033394
0.25633086
0.21932879
0.25702745
0.33574499
0.41353222
0.45350665
0.43353508
0.35021112
0.21727649
0.059907674
-0.092871091
-0.21538905
-0.29049214
-0.31187888
-0.28381505
-0.21880815
-0.13408476
-0.047703534
0.024845525
0.072889644
0.091523979
0.081325372
0.047241332
-0.0029948816
-0.060479651
-0.11658905
-0.16405485
-0.19765671
-0.21454611
-0.21422643
-0.19826058
-0.16976204
-0.13278817
-0.091700883
-0.050612138
-0.012969419
0.01870497
0.042912311
0.059145187
0.06772169
0.069562527
0.065924784
0.058187298
0.047675521
0.035579311
0.02290787
0.010497512
-0.00099217607
-0.011066647
-0.019392575
-0.025773886
-0.030137941
-0.032516724
-0.033039852
-0.031920225
-0.029446714
-0.025966385
-0.021866199
-0.017536644
-0.013344538
-0.0095934542
-0.0065166438
-0.0042143103
-0.0027721781
-0.0019233598
-0.0020368172
-0.0013583747
-0.0037527756
0.0042535375
1.8049666
1.8027045
1.7968401
1.7887862
1.7786157
1.7722231
1.7660295
1.7443853
1.712363
1.7004907
1.7175892
1.7240636
1.6743839
1.5767175
1.4934511
1.4804083
1.5303381
1.5753551
1.5416902
1.4066286
1.2140508
1.0432087
0.95824689
0.97241388
1.0449897
1.1069095
1.0969296
0.98899348
0.79994706
0.57801522
0.38056209
0.25201243
0.2100674
0.24335503
0.31891352
0.39510329
0.43494392
0.41588047
0.33397929
0.20249277
0.046254624
-0.10587766
-0.22823723
-0.3035344
-0.32526775
-0.29746726
-0.23244798
-0.14733933
-0.060203591
0.013397708
0.062721563
0.08278322
0.074099264
0.041527314
-0.0073103747
-0.063630588
-0.11887369
-0.16577935
-0.19909249
-0.21590067
-0.21562597
-0.19972964
-0.17122888
-0.13410774
-0.092708081
-0.051176213
-0.013030007
0.019120402
0.043705728
0.060179499
0.068877679
0.07077008
0.067182356
0.059537457
0.049182022
0.037288537
0.024836542
0.012620294
0.0012676553
-0.0087530622
-0.017118362
-0.023634575
-0.028215336
-0.030869966
-0.031696539
-0.030879516
-0.02868008
-0.025427338
-0.021496687
-0.017279952
-0.013148826
-0.0094214192
-0.0063469001
-0.0040519547
-0.0026441106
-0.0018826641
-0.0021455751
-0.0016927407
-0.004274721
0.0037337004
1.8190748
1.8169327
1.8113604
1.8037066
1.793874
1.7876908
1.7818098
1.7608566
1.7297816
1.7186225
1.7358163
1.7418333
1.6915728
1.5936604
1.5106985
1.4984073
1.5491751
1.5946408
1.5606332
1.4242681
1.229575
1.0562486
0.96901158
0.98158363
1.0533969
1.1151539
1.1050973
0.99658735
0.80601001
0.58137707
0.38016926
0.24724273
0.2009393
0.23053201
0.30350135
0.37834111
0.41790113
0.39928499
0.31817561
0.18751069
0.031918281
-0.11982289
-0.242003
-0.31723097
-0.33888846
-0.3108884
-0.24543538
-0.1596047
-0.071490157
0.0032697019
0.053858644
0.075255425
0.067941586
0.036721221
-0.01088514
-0.066197496
-0.12070764
-0.16714404
-0.20020736
-0.21692829
-0.21665571
-0.20076141
-0.17216512
-0.13477946
-0.092932691
-0.050821452
-0.01205575
0.020652046
0.045648182
0.062354883
0.071135646
0.073037161
0.069468607
0.061918016
0.051753872
0.04013249
0.02798453
0.016045918
0.0048900363
-0.0050488667
-0.013462201
-0.020151022
-0.025008911
-0.028010343
-0.029211383
-0.028753222
-0.02686152
-0.023839166
-0.020049453
-0.015885001
-0.011731967
-0.0079296273
-0.0047552369
-0.0023637541
-0.00089457677
-0.00012753271
-0.00046542274
-0.00013948017
-0.0030542041
0.0045864811
1.835461
1.8334295
1.8281142
1.8207947
1.8113178
1.8055691
1.8002986
1.7800653
1.7495214
1.7384195
1.75526
1.7609526
1.7108518
1.6136495
1.5315469
1.5196872
1.5700853
1.6143909
1.5787521
1.4406789
1.2444628
1.0698716
0.98155091
0.99306323
1.0636615
1.1238828
1.1118584
1.0008911
0.8073368
0.57921681
0.37411749
0.23715157
0.18702804
0.21337832
0.2839062
0.35713422
0.39579191
0.37679343
0.29564596
0.1651503
0.0098512007
-0.14148964
-0.26313823
-0.33768353
-0.35852115
-0.32957085
-0.26301001
-0.17588858
-0.086333233
-0.010071349
0.042009462
0.064867804
0.058990098
0.029153338
-0.017188104
-0.071430126
-0.1250957
-0.1708943
-0.20348947
-0.21987431
-0.21935297
-0.20322622
-0.17432338
-0.13648114
-0.094011651
-0.051165548
-0.011654784
0.021693263
0.047137502
0.064070903
0.072899114
0.074758896
0.071161856
0.063669334
0.053678362
0.042323699
0.030478727
0.018803975
0.0078057138
-0.0021256772
-0.01069556
-0.017692669
-0.022977654
-0.026478358
-0.028196759
-0.02822079
-0.026732769
-0.024007569
-0.02039695
-0.016298488
-0.012116998
-0.0082222537
-0.0049273197
-0.0024251525
-0.00088821823
-0.00012374299
-0.00054627299
-0.00039056475
-0.0034667029
0.0041513988
1.8540369
1.8521143
1.8470486
1.8400979
1.8310812
1.825865
1.821149
1.8013899
1.7711325
1.7601284
1.7770567
1.7830826
1.7336491
1.6372067
1.5554911
1.5432737
1.5925537
1.6353316
1.5982487
1.4591475
1.2623121
1.0872137
0.99809097
1.0081738
1.0765762
1.1339219
1.1185906
1.0041456
0.80708747
0.57545225
0.3668059
0.22630798
0.172802
0.19608071
0.26396013
0.33500774
0.37196046
0.35173791
0.26985792
0.13912072
-0.015938732
-0.16657833
-0.28711733
-0.3602449
-0.37948495
-0.34886508
-0.28060176
-0.19173617
-0.10041839
-0.022456249
0.03118961
0.055477464
0.05093214
0.022348668
-0.022837756
-0.076057428
-0.12885067
-0.17391675
-0.20590363
-0.22179744
-0.22088553
-0.20441558
-0.17512667
-0.13676999
-0.093628756
-0.050001994
-0.0097088102
0.024299858
0.050189235
0.067324325
0.076156246
0.077922216
0.074245545
0.066770309
0.056924006
0.045819881
0.034267183
0.022843096
0.011977094
0.0020098217
-0.0067787485
-0.014159161
-0.019948776
-0.024017769
-0.026305032
-0.026840157
-0.02576009
-0.023312298
-0.019839218
-0.015745743
-0.011459849
-0.0073863703
-0.0038825113
-0.0011860562
0.00049013751
0.0013149784
0.00085478846
0.00090206749
-0.0024561426
0.0048311517
1.8747128
1.872903
1.8681059
1.8615568
1.8530223
1.8483106
1.8440833
1.8247887
1.7949661
1.7843656
1.8016994
1.8081741
1.7591898
1.6630189
1.5811664
1.5682964
1.6165388
1.6582027
1.6202299
1.4805474
1.2832279
1.1073505
1.0167708
1.0244967
1.0896668
1.1431785
1.1238129
1.0054609
0.80473653
0.56959288
0.35744797
0.21337595
0.1562405
0.17592894
0.24038118
0.30830559
0.34260143
0.32035575
0.23721961
0.1060574
-0.048596312
-0.19807286
-0.31684868
-0.38781523
-0.40471025
-0.37174768
-0.30124344
-0.21024447
-0.11689838
-0.037065175
0.018240635
0.043991141
0.040773791
0.013435777
-0.030561531
-0.082649815
-0.13438675
-0.17848947
-0.20962714
-0.22480861
-0.22332293
-0.20636899
-0.17659039
-0.13764107
-0.093762097
-0.049293724
-0.0081637614
0.026546987
0.052905662
0.070246281
0.079065567
0.08070323
0.076901438
0.0693943
0.059645138
0.048746057
0.0374409
0.026221074
0.015435896
0.005372755
-0.0037043913
-0.011545646
-0.017919704
-0.02263152
-0.02555091
-0.026646858
-0.026011402
-0.023865038
-0.020540765
-0.016452348
-0.012053046
-0.0077864939
-0.0040576756
-0.0011563004
0.00066083156
0.0015343209
0.0010227983
0.00092396958
-0.0026059245
0.0045835552
1.8974052
1.8957137
1.8911968
1.8850652
1.877029
1.8728453
1.8691684
1.85046
1.8212239
1.811131
1.8288551
1.8356388
1.7869188
1.6909182
1.6090195
1.5958002
1.6434313
1.6843683
1.6456902
1.5053145
1.3071141
1.1298747
1.0372052
1.0420103
1.1035256
1.1529414
1.1294057
1.0070621
0.80255213
0.5636778
0.34767132
0.19950632
0.13806878
0.15336738
0.21353246
0.27751719
0.30849395
0.28380855
0.199295
0.067892473
-0.085902161
-0.23357917
-0.34986289
-0.41791973
-0.43176324
-0.39585696
-0.32265788
-0.22921465
-0.13363116
-0.051771343
0.0053245103
0.032646163
0.030839819
0.0048180978
-0.037900996
-0.088723139
-0.13922491
-0.1821721
-0.21229123
-0.2266339
-0.22448995
-0.20699869
-0.17669781
-0.13713767
-0.092512278
-0.047201481
-0.0052427957
0.03015283
0.056954549
0.074463898
0.083220339
0.084666085
0.080667196
0.073057589
0.063344392
0.052601342
0.041506953
0.030465487
0.01974319
0.0095692949
0.00018685296
-0.0081368957
-0.015122457
-0.020506024
-0.024085102
-0.02576392
-0.025587918
-0.023746928
-0.020563645
-0.016458845
-0.011913406
-0.0074113253
-0.003409268
-0.00024980873
0.0017622177
0.0027388093
0.0022221282
0.0020363966
-0.0017377662
0.0051567311
1.9220102
1.9204451
1.9162292
1.910545
1.9030492
1.8994482
1.8963897
1.8783445
1.8497551
1.8401858
1.8582847
1.8653909
1.8170396
1.7214165
1.6397283
1.6263776
1.6734966
1.7136476
1.6740507
1.5326589
1.3332209
1.1543003
1.0592988
1.0610226
1.1187734
1.1639693
1.1360413
1.009315
0.80043101
0.55706125
0.33630579
0.18309988
0.11640569
0.12640088
0.18145969
0.24083897
0.26803574
0.24068312
0.15480576
0.023404821
-0.1291113
-0.27446491
-0.38769152
-0.45228626
-0.46257982
-0.42330827
-0.34707967
-0.25093586
-0.15290378
-0.068805615
-0.009686993
0.019436968
0.019239749
-0.0053048059
-0.046597348
-0.095989729
-0.14507299
-0.18668674
-0.21564395
-0.22904748
-0.22617577
-0.20809167
-0.17722224
-0.13701885
-0.091637091
-0.045498747
-0.0027474425
0.033286463
0.060484282
0.078118103
0.086769021
0.087978137
0.083737632
0.075986773
0.066283177
0.05568455
0.044802912
0.033952539
0.023311727
0.013045495
0.0033682143
-0.0054408912
-0.013054643
-0.019139855
-0.023416965
-0.02572343
-0.026050613
-0.024556516
-0.021547753
-0.017453738
-0.012781081
-0.008060133
-0.0037987713
-0.00039227089
0.0018086371
0.0028825081
0.0023541367
0.0020575159
-0.0018667776
0.0049514839
1.9484432
1.9470106
1.943117
1.9379161
1.9310076
1.9280406
1.9256573
1.9083464
1.8804853
1.8715174
1.8900733
1.8976203
1.8498058
1.7547401
1.6733883
1.6599351
1.7064851
1.7457614
1.7051819
1.5627624
1.3621226
1.1815655
1.0842282
1.0827728
1.136541
1.1771568
1.144307
1.0124878
0.79836744
0.54955276
0.32308776
0.1639305
0.091153941
0.095122648
0.14447263
0.19878609
0.22190535
0.19176566
0.10459039
-0.026569363
-0.17743515
-0.32000168
-0.42965414
-0.49026669
-0.49651274
-0.45339417
-0.37366958
-0.27439152
-0.17350399
-0.086753832
-0.025185022
0.0061384604
0.0078695022
-0.01495867
-0.054632045
-0.10241533
-0.14990942
-0.19004662
-0.21774304
-0.23014696
-0.22650484
-0.20779155
-0.17632758
-0.13548342
-0.089388584
-0.042507934
0.00092676165
0.037487992
0.064987
0.082675282
0.091173596
0.092118277
0.087619764
0.079722947
0.070033858
0.059596528
0.048953651
0.038328127
0.027804108
0.0174758
0.0075199383
-0.0017752562
-0.010034101
-0.016849536
-0.021860597
-0.024831071
-0.025692924
-0.024567019
-0.021742591
-0.017656806
-0.012844666
-0.0078866879
-0.0033455086
0.00032949896
0.0027411563
0.003930763
0.0033945498
0.0029827013
-0.0012213128
0.0052894331
1.9765765
1.9752928
1.9717473
1.9670653
1.9607923
1.9585178
1.9568788
1.9403919
1.9133676
1.9051099
1.9242267
1.9323338
1.8852011
1.7908389
1.7099332
1.6964429
1.742479
1.7809749
1.7395642
1.5962923
1.3945833
1.2124088
1.1125875
1.1076218
1.1569215
1.1923552
1.1538854
1.0161829
0.79596051
0.54079939
0.30773146
0.14176584
0.062094921
0.059275653
0.10222301
0.15087162
0.16944413
0.13621399
0.047633
-0.083202063
-0.23217501
-0.37158433
-0.47720337
-0.53332316
-0.53497583
-0.48742472
-0.40360118
-0.30061632
-0.19634713
-0.1064407
-0.041938164
-0.007998477
-0.0040267529
-0.024916858
-0.062797673
-0.10882159
-0.15460641
-0.19319585
-0.21961008
-0.23102111
-0.22661861
-0.20728336
-0.17524652
-0.13382144
-0.087125074
-0.03965318
0.0043015254
0.041246575
0.068943485
0.086632485
0.094972162
0.095681865
0.090978246
0.082994049
0.073379269
0.063154083
0.052796584
0.042430446
0.032046148
0.021654504
0.011391405
0.0015505119
-0.0074389003
-0.015085798
-0.020941399
-0.024681332
-0.026174732
-0.025490201
-0.022901476
-0.018843059
-0.013884147
-0.008648749
-0.0037626291
0.00026948625
0.002997601
0.0044190912
0.0040052632
0.0036044403
-0.00068780885
0.0056963814
2.0063083
2.0051757
2.0020004
1.9978761
1.9922933
1.9907813
1.9899721
1.974412
1.9483392
1.9409038
1.9606947
1.9695027
1.923235
1.8297781
1.7494984
1.7361152
1.7817739
1.8196567
1.7776125
1.6336658
1.4309771
1.2471364
1.1446217
1.1357849
1.1801455
1.2098584
1.1651695
1.0209035
0.79379982
0.53141957
0.29080536
0.11703899
0.029453979
0.018835893
0.054429302
0.096583017
0.10996593
0.073249587
-0.016855519
-0.1472207
-0.2939288
-0.42963733
-0.53057092
-0.58147038
-0.57774184
-0.5249377
-0.43620676
-0.32876597
-0.22043593
-0.12675112
-0.058761916
-0.021759647
-0.015222947
-0.033942406
-0.06985196
-0.11398255
-0.15798317
-0.19501514
-0.22017873
-0.23063243
-0.22548221
-0.20552101
-0.17292399
-0.13098298
-0.083817832
-0.03593487
0.0083459802
0.045506205
0.073280278
0.090911728
0.099094496
0.099621836
0.094798821
0.086830295
0.07739812
0.067494107
0.057529092
0.047525389
0.037371198
0.026982011
0.016441063
0.0060377823
-0.0037457446
-0.012333487
-0.019177072
-0.023859341
-0.026170712
-0.026123871
-0.023961169
-0.020114209
-0.015174861
-0.0098138177
-0.0047201035
-0.00046519456
0.0024381135
0.0039443518
0.0034907563
0.0029190635
-0.0016325159
0.0046643463
2.0374871
2.036527
2.0337542
2.0302372
2.0254072
2.0247319
2.0248426
2.010321
1.9853286
1.9788487
1.9994517
2.0091293
1.9639453
1.8716414
1.7922192
1.7791345
1.8245892
1.862056
1.8196062
1.6751982
1.4716647
1.2861665
1.1808247
1.167853
1.2069066
1.2304368
1.1789512
1.0273892
0.79248974
0.52179943
0.27240392
0.089502011
-0.0073713142
-0.027125855
-0.00010242984
0.034551555
0.042038713
0.0014845778
-0.090141081
-0.21972487
-0.36361257
-0.49489878
-0.59032096
-0.63510376
-0.62507006
-0.56611073
-0.47163552
-0.35898494
-0.2459231
-0.14787155
-0.075908866
-0.035474159
-0.026103733
-0.042454616
-0.076247679
-0.1184076
-0.16062728
-0.19616727
-0.22016306
-0.22970666
-0.22380466
-0.20318097
-0.17000488
-0.12759448
-0.080083184
-0.031978352
0.012422937
0.049599949
0.077295728
0.094756075
0.10271331
0.10302176
0.098056487
0.090093735
0.080832059
0.071257916
0.061706159
0.052123127
0.04227725
0.031995076
0.021286125
0.010430412
-4.8544612e-05
-0.0094952275
-0.017253047
-0.022811621
-0.025861434
-0.026356422
-0.024482294
-0.020663491
-0.015495542
-0.0096990589
-0.0040229827
0.00088348935
0.0044396747
0.0065519324
0.0066084301
0.0064732396
0.0020081197
0.0076398057
2.0700093
2.0692201
2.0668809
2.0640214
2.060009
2.0602462
2.0613712
2.0480121
2.0242512
2.0188884
2.0404673
2.0511998
2.0073348
1.9164643
1.838183
1.8256496
1.8711351
1.9084429
1.8658842
1.7213179
1.5171767
1.3301222
1.2218903
1.2045721
1.2379801
1.2548555
1.1959292
1.036212
0.79242288
0.51210957
0.25244278
0.058803197
-0.048986617
-0.07943425
-0.062357544
-0.036281915
-0.035373461
-0.08001151
-0.17300074
-0.30131488
-0.44165644
-0.56764675
-0.65657994
-0.69420741
-0.67683521
-0.61074955
-0.50964539
-0.39098807
-0.27248104
-0.16944635
-0.092996909
-0.048704983
-0.036136783
-0.04980703
-0.08125203
-0.12132102
-0.16175657
-0.19586738
-0.21875794
-0.22740125
-0.22070547
-0.19936743
-0.1656106
-0.12281624
-0.075133774
-0.027031835
0.017267438
0.054290625
0.081811111
0.099072609
0.10682681
0.10695054
0.10186779
0.093894662
0.084756619
0.075430063
0.066206256
0.056956088
0.04734422
0.037094072
0.026133016
0.014712176
0.0033694521
-0.0071764942
-0.016188492
-0.023057717
-0.027386767
-0.029045273
-0.028159166
-0.025109782
-0.020485338
-0.015022447
-0.0095098441
-0.0046411867
-0.0010345103
0.0011849695
0.0014050154
0.0014563851
-0.0023545661
0.0047982374
2.1036832
2.1030944
2.1012224
2.0990676
2.0959406
2.0971766
2.0994212
2.0873555
2.0649859
2.0609271
2.0836847
2.0956911
2.0534013
1.9642708
1.8874665
1.875817
1.9216571
1.959145
1.9168507
1.7725157
1.5681024
1.3796867
1.2685775
1.2467576
1.2742164
1.2839645
1.2169063
1.0480795
0.79416733
0.50273211
0.23107015
0.024819846
-0.095810438
-0.13880615
-0.13331174
-0.11707357
-0.12351653
-0.17250261
-0.26666325
-0.39314231
-0.52909719
-0.64877095
-0.73008553
-0.75938612
-0.73352452
-0.65922688
-0.55049466
-0.42492422
-0.30017958
-0.19150579
-0.11003747
-0.061422007
-0.045223772
-0.055835483
-0.084671326
-0.12254733
-0.16122096
-0.19398337
-0.21580713
-0.22353876
-0.2160093
-0.19398861
-0.15982436
-0.11698501
-0.069619305
-0.022049603
0.021642991
0.058154554
0.085295752
0.10234183
0.11000717
0.11015197
0.10519485
0.097443146
0.088654293
0.079779431
0.071124607
0.062488476
0.053489389
0.043749696
0.033148414
0.02190338
0.010558112
-0.00013210176
-0.0093963408
-0.016560129
-0.021193758
-0.023114027
-0.022444546
-0.019562724
-0.015101807
-0.0098430202
-0.0046333818
-0.00021179371
0.0027747908
0.0041980092
0.0034289025
0.0023368045
-0.0030577493
0.0030912564
2.1383777
2.1379846
2.1366081
2.1352083
2.1330356
2.1353659
2.1388526
2.1282185
2.1073965
2.1048359
2.1290122
2.1425603
2.1021367
2.0150804
1.9401383
1.929784
1.9763915
2.0144744
1.9728819
1.8292427
1.6249964
1.4355475
1.3217195
1.2953767
1.3166753
1.3188497
1.2429175
1.0639072
0.79845911
0.49415869
0.20846935
-0.012634901
-0.14844587
-0.20625952
-0.21433311
-0.20943064
-0.22411627
-0.2777191
-0.37275979
-0.49665063
-0.62711687
-0.73913388
-0.81138724
-0.83093298
-0.79521515
-0.71143253
-0.5939006
-0.46035201
-0.32844534
-0.21338987
-0.12632334
-0.07288584
-0.052610562
-0.059810058
-0.085858512
-0.12155063
-0.15858131
-0.19008362
-0.2107959
-0.21742369
-0.20882027
-0.18597992
-0.15150122
-0.10900613
-0.0625825
-0.016315491
0.026031926
0.061423589
0.087813808
0.10450364
0.11213989
0.11247778
0.1078081
0.10033931
0.091738199
0.082909175
0.074105927
0.065092522
0.05543687
0.044750674
0.03294071
0.020311509
0.007530499
-0.0045076493
-0.014877779
-0.022771635
-0.027633485
-0.029212788
-0.027608453
-0.023256915
-0.016894377
-0.0094550838
-0.0019476996
0.0047225683
0.0097611716
0.012918391
0.013454522
0.013118664
0.0073159633
0.010302618
2.173875
2.1737133
2.1728686
2.1722819
2.1711352
2.1746573
2.179514
2.1704561
2.1513433
2.1504873
2.176353
2.1917545
2.1535215
2.0688953
1.9962457
1.9876903
2.035595
2.0747923
2.0344189
1.8920116
1.6884704
1.4984688
1.382284
1.3516049
1.3666837
1.3608941
1.2753009
1.0848972
0.80627849
0.48706746
0.18493539
-0.053732653
-0.20758283
-0.28298654
-0.30702879
-0.3152491
-0.33921591
-0.39770254
-0.49318105
-0.61346022
-0.73698254
-0.83962052
-0.90100828
-0.90905711
-0.86188419
-0.76719293
-0.63960726
-0.49695424
-0.35691357
-0.23470749
-0.14142032
-0.082624853
-0.057769108
-0.061208364
-0.0843798
-0.11808582
-0.15386905
-0.18446813
-0.20427632
-0.20974433
-0.19988576
-0.17603909
-0.14123572
-0.099351151
-0.05437592
-0.010107271
0.030216308
0.063928984
0.089327137
0.10581705
0.11407519
0.11577701
0.11305211
0.10795994
0.10193047
0.095695871
0.08923025
0.082054952
0.073439843
0.062786456
0.049877824
0.03500402
0.01895078
0.0027947746
-0.012233608
-0.025003937
-0.034575124
-0.040366511
-0.042188137
-0.04029597
-0.035336606
-0.028241544
-0.020099416
-0.01193441
-0.0047146319
0.001134263
0.0046930821
0.0075287207
0.0051299757
0.010818236
2.2100452
2.2100987
2.2098197
2.2101003
2.2100535
2.2148633
2.2212117
2.2138801
2.1966612
2.1977421
2.2255881
2.2431778
2.2074834
2.1256661
2.0557848
2.049632
2.0995054
2.14047
2.1019235
1.9613435
1.7591249
1.5692114
1.4512797
1.4167274
1.4257478
1.4117149
1.3156607
1.1125187
0.81883864
0.48229959
0.16081686
-0.098726016
-0.27412757
-0.37051547
-0.4134449
-0.43694159
-0.47140779
-0.53501753
-0.63026636
-0.74552488
-0.86016794
-0.95121755
-0.9994864
-0.99389662
-0.93335766
-0.82613589
-0.6871391
-0.53423575
-0.38515509
-0.25511077
-0.15502085
-0.090228696
-0.060068467
-0.059088192
-0.078991038
-0.11073912
-0.14565061
-0.17592784
-0.19536097
-0.20003636
-0.18905351
-0.16416251
-0.12893799
-0.087614194
-0.044269234
-0.0024903771
0.0347894
0.0652172
0.08730117
0.10063309
0.10605959
0.10546752
0.10125083
0.095731627
0.090609125
0.086751098
0.084136776
0.082030991
0.079297509
0.074790157
0.067731487
0.057875961
0.045553495
0.031535622
0.0168913
0.0028016756
-0.0096163114
-0.01946219
-0.026198036
-0.029694285
-0.030244771
-0.028456155
-0.025142706
-0.021115616
-0.017185301
-0.013699761
-0.011527923
-0.0090342957
-0.0098141661
0.0011667178
2.2466165
2.2469271
2.2472478
2.2484442
2.2495714
2.2557661
2.2637271
2.2582763
2.2431488
2.2464197
2.2765586
2.2966972
2.2639232
2.1853261
2.1187283
2.1156641
2.1683178
2.2118662
2.1758897
2.0378253
1.8376496
1.6486496
1.5298641
1.4922299
1.495642
1.4732744
1.3660197
1.148707
0.83782935
0.48112687
0.13678833
-0.14767547
-0.34894533
-0.47049067
-0.53590737
-0.57733655
-0.62377979
-0.6927348
-0.78680612
-0.89514374
-0.99838077
-1.0750313
-1.1073894
-1.0855759
-1.0093861
-0.88770131
-0.73563331
-0.57119319
-0.41223539
-0.27392811
-0.16685261
-0.09574215
-0.059770209
-0.053640258
-0.069598302
-0.098982806
-0.13299848
-0.16345165
-0.183369
-0.18845382
-0.17755775
-0.15253559
-0.11705572
-0.075252667
-0.031078237
0.012162111
0.051426274
0.084056578
0.10786228
0.12167662
0.12570928
0.1214602
0.11144272
0.098421061
0.084979817
0.07296976
0.063377172
0.056250892
0.050946485
0.046530959
0.042093478
0.037048262
0.031134816
0.024482032
0.017472392
0.01069402
0.0047711328
0.00022715674
-0.0026375257
-0.003833774
-0.0036475694
-0.0025964459
-0.0012842469
-0.00026485708
-4.6437601e-05
-0.00066625624
-0.0027747005
-0.0044028865
-0.0093504533
-0.00061524856
2.2834246
2.2839747
2.284921
2.2870817
2.2894489
2.2971251
2.3068351
2.3034238
2.2905721
2.2962809
2.3290488
2.3521323
2.3227017
2.2477814
2.1850291
2.1858034
2.2421642
2.289271
2.2567589
2.122014
1.9247293
1.7376796
1.6192587
1.5797292
1.5783731
1.5478917
1.4288634
1.1959157
0.86543003
0.48518506
0.1136952
-0.2007138
-0.43322074
-0.58513472
-0.67754055
-0.74021839
-0.80042301
-0.87485721
-0.96633261
-1.0651122
-1.1535596
-1.2121787
-1.2251729
-1.1840892
-1.0896725
-0.95124597
-0.78404921
-0.60639184
-0.43647581
-0.28956489
-0.17566645
-0.098642126
-0.0570603
-0.045527748
-0.056630247
-0.082053096
-0.11326565
-0.14218235
-0.16208031
-0.16904163
-0.16237451
-0.14402966
-0.11709074
-0.084342135
-0.047790226
-0.0088555466
0.030830711
0.06896875
0.10274973
0.12946577
0.14729618
0.15564877
0.15520782
0.14756118
0.13474008
0.11878954
0.10133888
0.083484912
0.06579869
0.048603512
0.032162175
0.016807759
0.0029803367
-0.0088293105
-0.018081705
-0.024313856
-0.027193526
-0.02668047
-0.023063706
-0.016989121
-0.0093763794
-0.0012760226
0.0062596113
0.012385817
0.016400516
0.018196115
0.017078922
0.014943836
0.0069778262
0.0088581869
2.3201763
2.3210136
2.3226143
2.3257873
2.3294539
2.3387058
2.3503043
2.3490843
2.3386789
2.3470717
2.3828205
2.4092704
2.3836336
2.3128913
2.2546136
2.2600465
2.3211288
2.372898
2.3448955
2.2144418
2.0211052
1.8373216
1.7208549
1.6810558
1.6762442
1.6383075
1.5072427
1.2572819
0.90455438
0.49681382
0.092968238
-0.25758346
-0.52802774
-0.71688836
-0.8420132
-0.93016134
-1.0063723
-1.0863382
-1.1732139
-1.2588152
-1.3278452
-1.3635688
-1.3527073
-1.2887329
-1.1734264
-1.0161263
-0.83196985
-0.63930009
-0.45682528
-0.30013283
-0.17890057
-0.096612042
-0.051184818
-0.036860314
-0.045466751
-0.067540715
-0.093515067
-0.11460232
-0.1248491
-0.12224123
-0.10900021
-0.089937665
-0.069808104
-0.051489316
-0.035065832
-0.018899047
-0.00096940141
0.019743652
0.042819091
0.06683359
0.089902117
0.11044398
0.1273132
0.13992382
0.14801914
0.15145804
0.15005883
0.14351782
0.13167751
0.11467256
0.093177479
0.068360463
0.041827642
0.015452481
-0.008833439
-0.029227955
-0.044343169
-0.053348595
-0.056132328
-0.053238094
-0.045777821
-0.035194583
-0.023056564
-0.010811485
0.00024239604
0.0093974668
0.015444795
0.019702629
0.016322236
0.017722096
2.3567188
2.3578035
2.3600806
2.3643008
2.3693219
2.3802391
2.3938407
2.3949503
2.3871729
2.3985226
2.4376214
2.4678482
2.4464351
2.3803926
2.3272977
2.338333
2.4052789
2.4629147
2.4405872
2.3155526
2.1274435
1.9485549
1.8360257
1.7981079
1.7917876
1.7477088
1.6048948
1.3367868
0.95903172
0.51919412
0.076661538
-0.31775218
-0.63465997
-0.8689288
-1.0342273
-1.1533217
-1.248371
-1.333768
-1.4132643
-1.4807417
-1.5240977
-1.5302054
-1.4892449
-1.3974773
-1.2581611
-1.0806687
-0.87931032
-0.67143659
-0.47498907
-0.30496267
-0.17120323
-0.078423709
-0.026866597
-0.012910593
-0.028890993
-0.063330378
-0.10232692
-0.13205684
-0.142366
-0.12966865
-0.097505972
-0.054539807
-0.010669222
0.026327258
0.052517691
0.06762079
0.073445398
0.072600954
0.067536888
0.06049464
0.053618209
0.048978759
0.048490869
0.053415656
0.06412908
0.079708966
0.098038589
0.11611818
0.13068211
0.13890776
0.1388445
0.12980453
0.11231439
0.088074022
0.059584387
0.029777048
0.0015343364
-0.022740612
-0.041374089
-0.053589092
-0.05940047
-0.059502987
-0.055006995
-0.047218448
-0.037559958
-0.027058422
-0.017302588
-0.007377205
-0.0022739039
0.0093897094
2.3926968
2.3940778
2.3970478
2.4023416
2.4087647
2.4214198
2.4371194
2.4406877
2.4357373
2.4503374
2.4931425
2.5275282
2.5107405
2.4499351
2.4028189
2.4205488
2.4946043
2.5594003
2.5439805
2.4256925
2.244391
2.0724105
1.9662833
1.9330006
1.9278569
1.8797996
1.7262325
1.4393567
1.0337905
0.55674591
0.068036639
-0.37974426
-0.75394065
-1.044689
-1.2600445
-1.41741
-1.5348693
-1.6252793
-1.6933531
-1.7361818
-1.7459808
-1.714089
-1.6347561
-1.5077338
-1.3386402
-1.138392
-0.92135027
-0.70361727
-0.49977278
-0.31992357
-0.16992026
-0.053454706
0.025469875
0.063356054
0.060145274
0.021820823
-0.038479318
-0.10302092
-0.15404304
-0.17893721
-0.17330394
-0.14028913
-0.087910682
-0.025475596
0.038481042
0.09684789
0.1438512
0.17488
0.18715443
0.1802921
0.15688811
0.12225211
0.08342855
0.047851217
0.021692897
0.0087866788
0.0099376635
0.023204035
0.044600555
0.069130075
0.091846676
0.10863479
0.11686385
0.11552606
0.10523329
0.08778483
0.065707271
0.041698919
0.018198193
-0.0028699668
-0.020243589
-0.03325356
-0.041798257
-0.046131828
-0.046918401
-0.044660491
-0.040617258
-0.033385916
-0.026635088
-0.0057107514
2.4279272
2.4295649
2.4332303
2.4396119
2.4474653
2.4619179
2.4798169
2.48597
2.4840252
2.5021499
2.5490044
2.5879016
2.576114
2.521074
2.4807957
2.5064289
2.5889706
2.6622974