/*--------------------------------*- C++ -*----------------------------------*\
| =========                 |                                                 |
| \\      /  F ield         | OpenFOAM: The Open Source CFD Toolbox           |
|  \\    /   O peration     | Version:  2406                                  |
|   \\  /    A nd           | Website:  www.openfoam.com                      |
|    \\/     M anipulation  |                                                 |
\*---------------------------------------------------------------------------*/
FoamFile
{
    version     2.0;
    format      ascii;
    arch        "LSB;label=32;scalar=64";
    class       surfaceScalarField;
    location    "100";
    object      phi;
}
// * * * * * * * * * * * * * * * * * * * * * * * * * * * * * * * * * * * * * //

dimensions      [0 3 -1 0 0 0 0];

oriented        oriented;

internalField   nonuniform List<scalar> 
39940
(
0.74997636
0.0072763194
0.74997782
0.0072715586
0.74998218
0.0072658468
0.74998931
0.0072596375
0.74999907
0.0072529577
0.75001171
0.0072459561
0.75002819
0.0072379534
0.75004698
0.0072305989
0.75006791
0.0072222922
0.75009084
0.0072139148
0.75011682
0.0072054242
0.75014692
0.0071964398
0.75018156
0.0071862418
0.75021805
0.0071769171
0.75025565
0.0071671757
0.75029435
0.0071577531
0.75033626
0.0071478197
0.75038185
0.0071387583
0.75043283
0.0071279922
0.75048682
0.0071181721
0.75054278
0.007107376
0.75059754
0.0070984038
0.75065157
0.0070890477
0.75070435
0.0070815361
0.75075865
0.0070732692
0.75081464
0.0070664134
0.75087401
0.0070585725
0.7509348
0.0070523426
0.75099644
0.0070455867
0.75105566
0.0070410312
0.75111184
0.0070364262
0.75116282
0.007034212
0.75120916
0.0070325388
0.75125215
0.0070311812
0.75129179
0.0070318656
0.75132965
0.0070325393
0.75136651
0.0070337884
0.75140242
0.0070355012
0.75143695
0.0070376756
0.75146864
0.007040927
0.75149765
0.0070433646
0.7515225
0.0070468281
0.75154193
0.0070511308
0.75155705
0.0070544215
0.75156689
0.0070589354
0.75157335
0.0070621456
0.75157618
0.0070663697
0.75157757
0.0070690524
0.75157736
0.0070726167
0.75157749
0.007074541
0.7515774
0.0070773115
0.75157853
0.0070784684
0.75157977
0.0070804892
0.75158218
0.0070809703
0.75158428
0.0070823297
0.751587
0.0070822103
0.75158939
0.0070823783
0.75159065
0.0070829074
0.75159179
0.0070819332
0.75159223
0.0070813276
0.75159138
0.0070810329
0.75159063
0.0070792827
0.75158959
0.0070778456
0.7515885
0.0070761162
0.75158763
0.0070740872
0.7515872
0.0070717227
0.75158681
0.0070696439
0.75158778
0.0070659984
0.75158963
0.0070626298
0.75159236
0.0070588946
0.75159599
0.0070548375
0.75160046
0.0070504265
0.75160571
0.0070456918
0.75161164
0.0070406105
0.75161819
0.0070351931
0.75162527
0.0070294317
0.75163279
0.0070233268
0.7516407
0.0070168906
0.75164894
0.0070101211
0.75165749
0.0070030454
0.75166631
0.0069956618
0.75167542
0.0069880056
0.75168482
0.0069800782
0.75169453
0.0069719155
0.75170458
0.0069635218
0.75171502
0.0069549281
0.75172587
0.0069461408
0.75173718
0.0069371836
0.75174899
0.0069280632
0.75176131
0.0069187967
0.75177417
0.0069093917
0.75178758
0.006899861
0.75180152
0.0068902122
0.75181596
0.0068804551
0.75183088
0.0068706086
0.75184623
0.0068606484
0.75186194
0.0068507539
0.75187791
0.0068403411
0.75189401
0.006831927
0.0068161218
0.74997553
0.0072745892
0.74997612
0.0072670341
0.7499802
0.0072578109
0.74998653
0.007249288
0.74999574
0.0072396745
0.75000785
0.007229749
0.7500222
0.0072195286
0.75003994
0.0072087958
0.75006118
0.0071969414
0.75008473
0.0071860951
0.75011106
0.007174605
0.75014064
0.0071622887
0.75017164
0.0071506866
0.75020678
0.0071375047
0.75024454
0.0071254809
0.75028617
0.0071125136
0.75033017
0.0071003921
0.75037723
0.0070882773
0.75042504
0.0070766285
0.75047574
0.0070637598
0.75052752
0.0070517891
0.75058174
0.0070405194
0.75063782
0.007029551
0.75069566
0.0070207465
0.75075424
0.0070121877
0.75081419
0.0070043519
0.75087365
0.0069972592
0.75093311
0.0069910223
0.75099081
0.0069858801
0.75104749
0.0069820586
0.75110159
0.0069797096
0.75115413
0.0069789141
0.75120369
0.0069801701
0.75125085
0.0069815896
0.75129547
0.006985334
0.75133748
0.0069894472
0.75137673
0.0069943253
0.751413
0.0069998271
0.75144608
0.0070058551
0.75147563
0.0070128799
0.75150147
0.0070190325
0.75152278
0.0070265745
0.75154075
0.0070335856
0.7515543
0.0070405083
0.75156489
0.0070471964
0.75157179
0.0070535366
0.75157667
0.0070593769
0.75157899
0.0070646714
0.75158046
0.0070693094
0.75158047
0.0070733078
0.7515806
0.007076645
0.75157999
0.0070793583
0.75158001
0.0070814801
0.75157952
0.007083045
0.75157973
0.0070841108
0.75157931
0.0070846939
0.75157882
0.0070848573
0.75157871
0.007084615
0.75157836
0.0070834292
0.75157711
0.007083097
0.75157683
0.007081254
0.75157518
0.0070803031
0.75157408
0.0070778479
0.7515731
0.007075695
0.75157176
0.0070738228
0.75157143
0.007070437
0.75157222
0.0070673084
0.75157307
0.0070638557
0.75157461
0.0070600522
0.75157691
0.0070559261
0.75157936
0.0070520634
0.75158314
0.0070466828
0.7515876
0.0070415752
0.75159267
0.0070361447
0.75159829
0.0070303802
0.75160438
0.0070242769
0.75161086
0.0070178351
0.75161768
0.0070110514
0.75162478
0.0070039397
0.75163212
0.0069965014
0.75163969
0.0069887594
0.75164746
0.0069807205
0.75165546
0.0069724116
0.75166369
0.0069638435
0.7516722
0.006955042
0.75168101
0.0069460197
0.75169015
0.0069367986
0.75169968
0.0069273918
0.75170963
0.0069178168
0.75172003
0.0069080871
0.75173089
0.0068982188
0.75174224
0.0068882259
0.75175407
0.006878125
0.75176636
0.0068679292
0.75177911
0.006857667
0.75179227
0.0068473238
0.75180583
0.0068370754
0.75181973
0.0068263626
0.75183405
0.0068175564
0.0068011577
0.74997586
0.0072730685
0.74997628
0.0072627519
0.74997899
0.0072511687
0.74998519
0.007239106
0.7499942
0.0072266222
0.75000604
0.007213843
0.75002137
0.0072001481
0.75003902
0.0071871123
0.75005894
0.0071729427
0.75008286
0.0071579404
0.75010889
0.0071441417
0.75013763
0.0071290146
0.75016976
0.0071140922
0.75020431
0.0070987341
0.75024267
0.0070832472
0.75028365
0.0070679696
0.7503276
0.0070530726
0.75037405
0.0070384618
0.7504232
0.0070240091
0.75047419
0.007009148
0.75052699
0.0069953262
0.75058108
0.0069828625
0.75063709
0.006970276
0.75069546
0.0069595047
0.75075463
0.0069505856
0.75081524
0.006941683
0.75087603
0.0069346188
0.75093634
0.0069289026
0.75099496
0.0069253031
0.75105259
0.006922215
0.75110765
0.0069221766
0.75116048
0.0069234383
0.75121149
0.0069265645
0.75125936
0.0069313958
0.7513046
0.006938347
0.75134769
0.006945341
0.75138731
0.0069545539
0.75142324
0.0069645394
0.75145642
0.0069738946
0.751486
0.0069848459
0.7515111
0.0069953954
0.7515328
0.0070059768
0.75155043
0.0070164013
0.75156354
0.0070270903
0.7515736
0.0070360688
0.75157987
0.0070455965
0.7515835
0.0070537594
0.75158567
0.0070604495
0.75158582
0.0070674278
0.75158505
0.0070728615
0.75158384
0.0070773719
0.7515831
0.0070803857
0.75158183
0.0070837738
0.75158129
0.007085188
0.75158028
0.0070870917
0.75157993
0.007087156
0.75157952
0.0070872413
0.75157897
0.0070868328
0.75157759
0.0070859556
0.75157659
0.0070846844
0.75157478
0.0070830379
0.75157405
0.0070804527
0.7515721
0.007078747
0.75157088
0.007075525
0.75156994
0.0070731948
0.75156941
0.00706934
0.75156883
0.00706637
0.75156949
0.0070618673
0.75157088
0.0070576491
0.75157301
0.0070531096
0.7515765
0.0070482673
0.75158009
0.0070431184
0.75158376
0.0070382707
0.75158862
0.0070319083
0.75159399
0.0070258286
0.75159981
0.0070194189
0.75160598
0.007012673
0.75161244
0.007005591
0.75161914
0.0069981741
0.75162603
0.0069904333
0.75163309
0.0069823763
0.75164032
0.0069740212
0.75164771
0.0069653801
0.75165528
0.0069564739
0.75166306
0.0069473167
0.7516711
0.0069379285
0.75167942
0.0069283241
0.75168808
0.0069185219
0.7516971
0.0069085371
0.75170654
0.0068983875
0.75171641
0.0068880908
0.75172673
0.0068776663
0.7517375
0.006867135
0.75174873
0.0068565157
0.75176041
0.0068458449
0.75177251
0.0068351053
0.751785
0.0068245005
0.75179789
0.0068134133
0.75181092
0.0068045091
0.0067875845
0.74997519
0.007271699
0.74997539
0.0072587006
0.74997845
0.0072442154
0.7499843
0.0072293057
0.7499935
0.0072134203
0.75000492
0.007198382
0.75001872
0.0071823219
0.75003668
0.0071651622
0.75005682
0.0071487481
0.75007966
0.0071309134
0.7501058
0.0071136165
0.75013418
0.0070961573
0.75016552
0.0070783221
0.75019997
0.0070600875
0.75023762
0.0070417341
0.75027901
0.0070230271
0.75032275
0.0070059805
0.75036969
0.0069881917
0.75041893
0.006971362
0.75046963
0.0069549241
0.75052231
0.0069390644
0.75057818
0.0069235186
0.75063479
0.0069104224
0.75069382
0.0068976173
0.75075431
0.0068876439
0.75081574
0.0068781523
0.7508769
0.0068716047
0.75093832
0.0068656933
0.75099877
0.0068629692
0.75105712
0.0068617787
0.75111411
0.0068628375
0.75116826
0.006866803
0.75122051
0.0068718143
0.75126953
0.0068801454
0.75131641
0.0068897401
0.75135922
0.0069015201
0.75139961
0.0069139585
0.75143738
0.0069273458
0.75147046
0.0069419944
0.75150039
0.006956413
0.75152632
0.0069709527
0.75154749
0.0069859369
0.75156447
0.0069999472
0.75157799
0.0070133397
0.75158717
0.007025921
0.75159306
0.0070381391
0.75159683
0.0070480592
0.7515973
0.0070580073
0.75159748
0.0070655235
0.75159615
0.0070730007
0.75159497
0.0070780558
0.75159306
0.0070825608
0.75159184
0.0070859902
0.75159017
0.0070884271
0.75158927
0.0070899627
0.75158784
0.007090681
0.75158639
0.0070906908
0.75158542
0.0070894714
0.75158366
0.0070889164
0.75158228
0.0070866811
0.75158073
0.0070846176
0.75157846
0.0070821809
0.7515768
0.0070794027
0.75157528
0.0070757039
0.75157403
0.0070728915
0.75157262
0.0070691673
0.75157296
0.0070645237
0.75157337
0.007060172
0.75157389
0.0070561104
0.75157578
0.0070505521
0.75157843
0.0070453058
0.75158181
0.0070397821
0.75158647
0.0070339757
0.75159052
0.0070284811
0.7515957
0.0070214795
0.75160131
0.0070147605
0.75160729
0.0070077129
0.75161356
0.0070003294
0.75162008
0.0069926127
0.75162679
0.0069845654
0.75163367
0.0069761996
0.75164071
0.0069675245
0.75164792
0.0069585574
0.7516553
0.0069493114
0.7516629
0.0069398049
0.75167075
0.0069300524
0.75167888
0.0069200717
0.75168733
0.0069098784
0.75169616
0.0068994906
0.75170539
0.0068889265
0.75171505
0.0068782073
0.75172516
0.0068673549
0.75173573
0.0068563946
0.75174675
0.0068453494
0.75175823
0.0068342603
0.75177014
0.0068231156
0.75178246
0.0068121206
0.7517952
0.0068006478
0.75180834
0.0067913462
0.006773604
0.74997512
0.0072703648
0.74997517
0.0072548773
0.7499786
0.0072369769
0.74998417
0.0072198649
0.7499919
0.0072017595
0.75000371
0.0071826174
0.75001784
0.0071642405
0.75003487
0.0071442293
0.75005464
0.0071250369
0.7500771
0.0071043706
0.75010237
0.0070841008
0.75013117
0.0070629831
0.75016246
0.0070427256
0.75019746
0.0070209946
0.75023502
0.007000426
0.7502757
0.0069789263
0.75032
0.0069584854
0.75036707
0.0069379647
0.75041606
0.0069191549
0.75046793
0.0068997015
0.75052194
0.006881629
0.75057744
0.0068646628
0.75063555
0.0068491761
0.75069553
0.0068348585
0.75075706
0.0068237345
0.75081969
0.0068135286
0.7508828
0.0068067491
0.75094513
0.0068017147
0.75100722
0.0067991569
0.75106786
0.0067992077
0.75112657
0.006801968
0.75118294
0.0068080766
0.75123612
0.0068162822
0.7512865
0.0068276178
0.75133396
0.0068406184
0.75137896
0.0068555339
0.75142015
0.0068725851
0.7514573
0.006890776
0.75149137
0.0069091149
0.75152148
0.0069278286
0.75154678
0.00694716
0.75156833
0.0069655649
0.75158492
0.0069839323
0.7515979
0.007000198
0.75160581
0.0070171222
0.75161152
0.0070309219
0.75161384
0.0070438791
0.7516146
0.007055319
0.75161266
0.00706579
0.751611
0.0070734871
0.75160832
0.0070802679
0.75160554
0.0070856148
0.7516029
0.0070896358
0.75160049
0.0070924434
0.75159828
0.007094149
0.75159683
0.0070942746
0.75159541
0.0070941444
0.75159333
0.0070932798
0.75159171
0.0070917782
0.75158934
0.0070897292
0.75158742
0.0070866032
0.75158542
0.0070836738
0.75158346
0.007080376
0.75158106
0.0070767562
0.75157957
0.0070728265
0.75157854
0.0070685898
0.75157808
0.0070634513
0.75157771
0.0070592172
0.75157929
0.0070534948
0.75158044
0.0070486992
0.75158298
0.0070424412
0.75158626
0.0070365294
0.75159023
0.0070303611
0.75159541
0.0070239224
0.75159993
0.0070177971
0.75160549
0.0070101626
0.75161143
0.0070028071
0.75161766
0.0069951203
0.75162415
0.0069870983
0.75163083
0.006978745
0.7516377
0.0069700662
0.75164473
0.0069610731
0.75165193
0.0069517769
0.75165932
0.0069421926
0.75166693
0.0069323337
0.75167478
0.0069222162
0.75168292
0.0069118548
0.7516914
0.0069012667
0.75170024
0.00689047
0.75170949
0.0068794856
0.75171918
0.0068683367
0.75172932
0.0068570487
0.75173993
0.0068456503
0.751751
0.0068341684
0.75176253
0.0068226484
0.75177452
0.0068110771
0.75178693
0.0067996741
0.75179978
0.006787773
0.75181289
0.0067782385
0.0067599135
0.7499757
0.0072691395
0.74997559
0.0072512041
0.74997762
0.0072311778
0.74998296
0.0072107063
0.74999165
0.007189204
0.75000192
0.0071684412
0.75001623
0.0071460514
0.75003277
0.0071238487
0.75005271
0.0071012406
0.75007483
0.0070782593
0.75009981
0.0070549388
0.75012777
0.0070307324
0.75015938
0.0070068722
0.75019349
0.0069828558
0.7502314
0.0069588432
0.75027192
0.0069350672
0.75031619
0.0069111078
0.75036284
0.0068882649
0.75041342
0.006865448
0.75046527
0.0068445825
0.75052001
0.0068235233
0.75057693
0.006804411
0.75063598
0.0067870033
0.75069702
0.0067710532
0.75075978
0.0067586266
0.75082382
0.0067475296
0.75088856
0.0067403433
0.7509533
0.0067354166
0.75101734
0.0067335047
0.75108001
0.0067347281
0.75114072
0.0067391789
0.75119904
0.006747488
0.75125402
0.0067589809
0.75130664
0.0067728687
0.75135553
0.0067900427
0.75140114
0.0068089022
0.7514433
0.0068301941
0.75148179
0.0068528341
0.75151633
0.0068757345
0.75154607
0.0068996096
0.75157197
0.0069227911
0.75159268
0.0069460611
0.75160883
0.0069684181
0.75162059
0.0069883432
0.75162892
0.007007955
0.75163315
0.0070252524
0.75163388
0.0070413234
0.75163303
0.007054283
0.75163066
0.0070665082
0.75162738
0.0070756152
0.7516237
0.0070834793
0.75161998
0.0070896195
0.75161645
0.0070941741
0.7516132
0.0070972859
0.75161085
0.0070985006
0.75160811
0.0070991683
0.75160547
0.0070988433
0.75160344
0.0070970659
0.75160072
0.0070957683
0.7515985
0.0070926509
0.75159557
0.0070896137
0.75159322
0.007085536
0.75159032
0.0070822885
0.75158821
0.0070775157
0.75158644
0.0070730292
0.75158516
0.0070682535
0.75158388
0.0070631894
0.75158451
0.0070572468
0.75158471
0.0070522407
0.75158691
0.0070457842
0.75158872
0.0070402961
0.75159188
0.0070333807
0.75159575
0.0070268369
0.75160025
0.007020048
0.75160588
0.0070129913
0.75161077
0.0070062441
0.75161664
0.0069979817
0.75162282
0.0069899923
0.75162925
0.006981668
0.75163588
0.0069730071
0.7516427
0.0069640151
0.75164969
0.0069546988
0.75165686
0.0069450697
0.75166421
0.0069351395
0.75167178
0.0069249226
0.75167961
0.0069144327
0.75168772
0.0069036852
0.75169617
0.0068926974
0.75170498
0.0068814885
0.75171421
0.0068700811
0.75172387
0.0068585001
0.751734
0.0068467735
0.75174459
0.0068349327
0.75175566
0.0068230076
0.75176719
0.0068110458
0.75177919
0.0067990386
0.75179164
0.006787203
0.75180453
0.0067748726
0.75181787
0.0067648912
0.006745712
0.74997503
0.0072678985
0.74997487
0.007247728
0.74997733
0.0072250431
0.74998304
0.0072012803
0.74999022
0.0071782503
0.7500013
0.0071535602
0.75001458
0.0071290116
0.75003072
0.0071040002
0.75004971
0.0070785168
0.75007216
0.0070519646
0.75009684
0.0070262305
0.75012442
0.0069990094
0.75015503
0.0069721707
0.75018942
0.006944613
0.75022714
0.0069176348
0.75026825
0.0068908166
0.75031271
0.0068637522
0.75036031
0.0068378196
0.75041019
0.0068126301
0.75046389
0.0067877834
0.75051941
0.0067647723
0.75057731
0.0067433196
0.75063751
0.00672382
0.75069991
0.0067060224
0.75076487
0.0066914733
0.75083016
0.0066804617
0.75089758
0.0066714455
0.75096518
0.0066664389
0.75103161
0.0066656265
0.75109672
0.0066679416
0.75115926
0.006674678
0.75121991
0.0066846499
0.75127767
0.0066989669
0.75133226
0.0067161978
0.75138288
0.0067377873
0.75142995
0.0067608664
0.75147327
0.0067867025
0.7515126
0.0068141127
0.75154767
0.0068418935
0.75157761
0.0068712447
0.7516028
0.0068991914
0.75162312
0.0069269927
0.75163921
0.0069529946
0.75164949
0.0069779848
0.75165616
0.0070004648
0.75165919
0.0070207922
0.75165925
0.007039459
0.75165707
0.0070545895
0.75165337
0.0070685886
0.75164816
0.0070796928
0.75164321
0.0070880007
0.75163827
0.007094882
0.75163361
0.0070998961
0.75162932
0.0071032333
0.75162541
0.0071044604
0.75162181
0.0071049793
0.7516184
0.0071043644
0.75161508
0.0071021871
0.75161236
0.0070998007
0.75160899
0.0070967363
0.75160617
0.0070925075
0.75160278
0.0070884178
0.75160009
0.0070839475
0.75159765
0.0070785506
0.75159498
0.0070740679
0.75159343
0.0070680957
0.75159254
0.0070624652
0.75159239
0.0070559822
0.75159305
0.007050468
0.75159394
0.0070441367
0.75159686
0.0070370045
0.75159936
0.0070308815
0.75160318
0.0070233566
0.75160764
0.0070162136
0.75161266
0.0070088235
0.75161874
0.007001157
0.75162401
0.006993788
0.75163019
0.0069848933
0.75163663
0.0069762641
0.75164328
0.0069672955
0.75165012
0.0069579884
0.75165713
0.0069483491
0.75166432
0.0069383857
0.7516717
0.0069281094
0.7516793
0.0069175322
0.75168714
0.0069066678
0.75169528
0.0068955309
0.75170374
0.006884139
0.75171257
0.006872513
0.75172182
0.0068606762
0.7517315
0.0068486564
0.75174164
0.0068364831
0.75175226
0.0068241917
0.75176336
0.0068118134
0.75177494
0.0067994003
0.751787
0.0067869411
0.75179951
0.006774665
0.7518125
0.0067618685
0.75182579
0.006751597
0.0067318015
0.74997505
0.0072667945
0.74997536
0.0072438107
0.74997762
0.0072191573
0.74998188
0.0071933808
0.74998991
0.0071665187
0.75
0.0071397487
0.75001287
0.0071124632
0.75002862
0.0070846379
0.75004783
0.0070556789
0.75006923
0.0070268148
0.75009403
0.006997514
0.75012111
0.0069678939
0.75015186
0.0069374355
0.75018534
0.0069073906
0.75022293
0.0068766735
0.75026409
0.0068466385
0.75030814
0.0068169161
0.75035604
0.0067871781
0.75040755
0.0067582749
0.75046122
0.0067310739
0.75051755
0.0067052859
0.75057709
0.0066806432
0.75063923
0.0066587611
0.75070327
0.0066394347
0.75076956
0.006623085
0.75083824
0.0066101014
0.75090807
0.0066002188
0.75097768
0.0065955445
0.75104744
0.006594493
0.75111533
0.0065984299
0.75118123
0.0066068543
0.75124454
0.006619171
0.7513048
0.0066364604
0.75136168
0.0066572495
0.75141492
0.0066829254
0.75146368
0.0067111456
0.75150834
0.0067418842
0.75154862
0.0067744479
0.75158364
0.0068081082
0.75161434
0.0068421287
0.75163931
0.0068758075
0.75165906
0.0069084987
0.75167307
0.0069396414
0.75168283
0.0069681545
0.75168818
0.0069942966
0.75168915
0.0070184016
0.75168707
0.0070397544
0.75168272
0.0070570974
0.75167744
0.0070722748
0.7516713
0.007084744
0.75166427
0.0070946451
0.75165736
0.0071021701
0.75165142
0.007106936
0.75164598
0.0071103711
0.75164103
0.0071115019
0.7516365
0.0071117537
0.75163226
0.0071107387
0.75162819
0.007108059
0.75162422
0.0071050824
0.75162088
0.0071007771
0.75161696
0.0070964783
0.75161372
0.0070911014
0.75161004
0.0070865448
0.75160725
0.0070798685
0.7516049
0.0070747206
0.75160252
0.0070687192
0.75160142
0.0070618863
0.75160051
0.0070554286
0.75160165
0.0070481775
0.75160306
0.0070419517
0.75160471
0.0070349626
0.75160838
0.0070272155
0.75161158
0.0070205053
0.75161604
0.0070124031
0.75162106
0.0070046791
0.75162656
0.0069966957
0.75163305
0.0069884193
0.75163866
0.0069804247
0.75164513
0.0069708904
0.75165181
0.0069616114
0.75165868
0.0069519847
0.75166573
0.0069420143
0.75167295
0.0069317076
0.75168036
0.006921075
0.75168798
0.0069101284
0.75169584
0.0068988813
0.75170399
0.0068873489
0.75171246
0.0068755496
0.75172129
0.0068635048
0.75173054
0.0068512399
0.75174022
0.0068387828
0.75175036
0.0068261662
0.75176098
0.0068134254
0.75177209
0.0068005957
0.75178368
0.0067877284
0.75179576
0.0067748158
0.75180831
0.0067620858
0.75182134
0.0067488238
0.75183483
0.0067380861
0.0067173532
0.7499756
0.0072656763
0.74997465
0.0072412733
0.74997735
0.0072129596
0.74998193
0.0071852647
0.74998903
0.0071558401
0.74999873
0.0071264517
0.75001119
0.0070964684
0.75002706
0.0070652967
0.75004514
0.0070341299
0.750066
0.0070023767
0.75009024
0.00696953
0.75011742
0.0069368678
0.75014719
0.0069038886
0.75018101
0.0068700452
0.75021848
0.0068360427
0.75025965
0.0068026806
0.7503044
0.006769607
0.75035253
0.0067365245
0.75040382
0.0067043354
0.75045873
0.0066733353
0.75051659
0.0066444642
0.7505768
0.0066174926
0.75064057
0.0065922684
0.75070719
0.0065704705
0.75077636
0.0065520092
0.75084762
0.0065373557
0.75092026
0.0065263656
0.75099347
0.0065212028
0.75106577
0.0065209496
0.75113748
0.0065252078
0.7512072
0.0065353007
0.75127426
0.0065500297
0.75133751
0.0065710513
0.75139653
0.0065962463
0.75145219
0.0066257342
0.75150299
0.0066594911
0.75154924
0.0066955763
0.75159063
0.0067337645
0.75162627
0.0067737814
0.75165649
0.006813539
0.75168112
0.0068527894
0.75170012
0.0068907573
0.75171363
0.006926773
0.75172139
0.0069602958
0.75172453
0.0069903156
0.75172373
0.0070177667
0.75172041
0.0070412989
0.75171417
0.0070615149
0.75170584
0.0070790595
0.75169731
0.0070922465
0.75168918
0.0071024561
0.75168068
0.0071111266
0.75167328
0.0071155204
0.75166591
0.007119526
0.75165916
0.007120418
0.75165355
0.0071196651
0.75164836
0.007118115
0.75164347
0.0071147936
0.75163936
0.0071105104
0.75163416
0.007106658
0.75163027
0.0071003752
0.75162593
0.0070948178
0.75162242
0.0070888854
0.75161867
0.0070820539
0.75161601
0.0070755763
0.75161398
0.007068883
0.75161209
0.0070619976
0.75161163
0.0070543455
0.75161146
0.0070471368
0.75161279
0.0070398021
0.7516156
0.0070317475
0.75161805
0.0070247778
0.75162247
0.0070164742
0.75162635
0.0070092128
0.75163142
0.0070005485
0.75163697
0.006992242
0.75164292
0.0069836519
0.7516498
0.0069747462
0.75165574
0.0069661036
0.75166251
0.0069559066
0.75166946
0.0069459551
0.75167658
0.006935649
0.75168388
0.006924996
0.75169136
0.0069140044
0.75169904
0.0069026867
0.75170697
0.0068910546
0.75171517
0.0068791247
0.75172368
0.006866915
0.75173256
0.0068544489
0.75174184
0.006841752
0.75175156
0.0068288547
0.75176174
0.0068157899
0.75177241
0.0068025959
0.75178356
0.006789309
0.75179521
0.0067759833
0.75180735
0.006762609
0.75181996
0.0067494227
0.75183307
0.0067356741
0.75184654
0.0067245973
0.0067031778
0.74997501
0.0072646886
0.74997514
0.0072376554
0.74997645
0.0072081975
0.74998135
0.0071769021
0.74998808
0.0071456121
0.74999736
0.0071136734
0.75000991
0.007080482
0.75002462
0.0070472269
0.75004212
0.007013277
0.75006299
0.0069780604
0.75008608
0.0069428297
0.75011275
0.0069064831
0.75014268
0.0068703182
0.75017615
0.0068331932
0.75021275
0.0067964252
0.75025436
0.0067584127
0.7502997
0.0067218369
0.750348
0.0066858197
0.75040032
0.0066494895
0.75045535
0.0066155811
0.7505143
0.006582664
0.75057659
0.0065523779
0.75064221
0.0065240345
0.75071163
0.0064988017
0.75078336
0.006478472
0.75085806
0.0064612461
0.75093384
0.0064494476
0.75101042
0.0064435425
0.75108749
0.0064426826
0.75116289
0.0064483364
0.75123634
0.0064600595
0.75130646
0.0064778667
0.75137381
0.006501594
0.75143664
0.006531479
0.75149513
0.0065657656
0.75154827
0.0066055311
0.75159631
0.0066474982
0.75163891
0.0066918861
0.75167513
0.0067388465
0.75170536
0.0067849126
0.75172944
0.0068302699
0.75174682
0.0068745883
0.7517583
0.0069158947
0.75176431
0.0069541509
0.75176487
0.0069889029
0.75176194
0.0070192595
0.75175581
0.0070456757
0.75174677
0.0070687805
0.75173749
0.0070868543
0.7517269
0.0071018885
0.75171563
0.0071134956
0.75170533
0.0071219672
0.75169508
0.0071270301
0.75168682
0.007129632
0.75167935
0.0071301135
0.75167196
0.0071293899
0.75166573
0.0071265466
0.75165932
0.0071230327
0.75165382
0.0071172994
0.75164916
0.0071119613
0.75164349
0.0071059992
0.75163864
0.0070989652
0.75163471
0.007091565
0.7516306
0.0070845007
0.75162765
0.0070766261
0.75162539
0.0070691851
0.75162393
0.0070616057
0.75162275
0.0070539144
0.7516231
0.0070455339
0.7516244
0.0070376692
0.75162601
0.0070297388
0.75162968
0.0070211333
0.75163294
0.0070136368
0.7516381
0.0070048087
0.75164264
0.0069970078
0.75164829
0.0069877766
0.75165434
0.0069788731
0.75166073
0.0069696558
0.75166738
0.0069606977
0.75167424
0.0069501766
0.7516813
0.0069398878
0.75168852
0.0069292324
0.75169591
0.0069182151
0.75170348
0.006906849
0.75171125
0.0068951432
0.75171925
0.0068831148
0.75172751
0.0068707779
0.75173608
0.0068581549
0.75174501
0.0068452681
0.75175434
0.0068321456
0.75176409
0.0068188178
0.75177431
0.0068053172
0.75178501
0.0067916845
0.7517962
0.0067779536
0.75180789
0.006764183
0.75182007
0.0067503598
0.75183272
0.0067367228
0.75184587
0.0067225047
0.7518595
0.0067109691
0.0066886186
0.74997553
0.0072636486
0.74997445
0.0072354535
0.74997676
0.0072025637
0.74998076
0.0071695665
0.74998711
0.0071359066
0.74999651
0.0071009222
0.7500079
0.0070658049
0.75002201
0.0070299226
0.75003948
0.0069926439
0.75005911
0.0069551774
0.75008216
0.006916372
0.75010762
0.0068775343
0.75013698
0.0068375489
0.75016995
0.0067970828
0.75020736
0.0067562452
0.75024812
0.0067152447
0.75029281
0.0066749647
0.75034251
0.0066339634
0.75039472
0.0065949997
0.75045178
0.0065560323
0.75051193
0.0065199002
0.75057641
0.0064853034
0.75064462
0.0064534378
0.75071585
0.0064255469
0.75079156
0.0064011551
0.75086944
0.0063821437
0.75094876
0.0063691577
0.75103042
0.0063609622
0.75111102
0.0063610166
0.75119134
0.0063666706
0.75126978
0.0063799489
0.75134483
0.0064008938
0.75141569
0.0064287316
0.7514829
0.0064624509
0.75154408
0.0065032155
0.75160054
0.0065483691
0.75165061
0.0065974772
0.75169393
0.0066493614
0.75173136
0.0067027626
0.75176088
0.0067570084
0.75178363
0.0068090864
0.75179972
0.0068596953
0.75180945
0.0069067349
0.75181277
0.0069506735
0.75181159
0.0069892156
0.75180558
0.0070238406
0.75179629
0.007053226
0.75178472
0.0070786211
0.75177177
0.0070983766
0.75175825
0.0071145345
0.75174478
0.0071268
0.75173246
0.0071349047
0.75172098
0.0071398529
0.75171047
0.0071420643
0.75170032
0.0071425457
0.75169224
0.0071398628
0.75168429
0.0071367307
0.75167752
0.0071316578
0.75167057
0.0071255213
0.75166459
0.0071185537
0.7516589
0.0071115749
0.75165413
0.0071029403
0.75164915
0.0070951815
0.75164467
0.0070871987
0.75164083
0.0070784479
0.75163834
0.0070695963
0.75163611
0.0070618787
0.75163602
0.0070523144
0.75163572
0.0070445306
0.75163699
0.0070355326
0.75163922
0.0070271121
0.75164175
0.0070186674
0.75164628
0.0070095678
0.75165033
0.0070015721
0.75165619
0.0069922222
0.75166135
0.0069838631
0.75166753
0.0069740362
0.75167405
0.0069644992
0.75168143
0.0069546158
0.75168783
0.0069449653
0.75169502
0.006933731
0.75170237
0.0069227189
0.75170989
0.0069113324
0.75171759
0.0068995853
0.75172547
0.0068874879
0.75173358
0.0068750585
0.75174195
0.0068623126
0.75175063
0.0068492746
0.75175965
0.006835967
0.75176906
0.0068224204
0.75177889
0.0068086641
0.75178919
0.0067947334
0.75179996
0.0067806664
0.75181122
0.0067665004
0.75182297
0.0067522931
0.75183522
0.0067380285
0.75184793
0.0067239572
0.75186114
0.0067092766
0.7518747
0.0066973947
0.0066742272
0.74997557
0.0072627959
0.74997494
0.0072328415
0.74997643
0.0071978349
0.74998009
0.0071626632
0.7499866
0.0071261369
0.74999425
0.0070900185
0.75000563
0.0070512546
0.75001908
0.0070134167
0.75003582
0.0069728712
0.7500553
0.006932584
0.750077
0.006891418
0.75010292
0.0068482799
0.75013159
0.0068056329
0.75016395
0.0067617426
0.75020029
0.0067173086
0.75024135
0.0066719276
0.75028655
0.006627734
0.75033582
0.0065826861
0.75038971
0.0065389748
0.750447
0.006496405
0.75050896
0.0064554669
0.75057507
0.0064167221
0.7506454
0.0063808471
0.75072041
0.0063486138
0.75079862
0.0063214366
0.75088009
0.006299537
0.75096525
0.0062830845
0.75105078
0.0062745767
0.75113738
0.0062734047
0.75122271
0.0062800423
0.75130564
0.0062953991
0.7513863
0.006318364
0.75146313
0.0063499637
0.75153408
0.0063897393
0.75160023
0.0064357482
0.75165913
0.0064887864
0.75171146
0.0065452143
0.75175678
0.0066048229
0.75179355
0.006667303
0.7518234
0.0067287257
0.75184515
0.0067888484
0.75185898
0.0068469881
0.75186596
0.0069002784
0.75186673
0.0069497075
0.75186214
0.0069929162
0.75185257
0.007031981
0.75183969
0.0070643965
0.75182517
0.007091457
0.75180877
0.0071134064
0.75179256
0.0071299526
0.7517766
0.0071426854
0.7517614
0.0071508097
0.75174727
0.0071554113
0.75173433
0.0071569941
0.75172317
0.0071560405
0.7517125
0.0071529585
0.75170395
0.0071475331
0.75169554
0.0071419092
0.75168774
0.0071345825
0.75168101
0.0071258425
0.75167469
0.0071177169
0.75166879
0.0071079592
0.75166338
0.0070991247
0.75165855
0.0070901129
0.75165504
0.0070798127
0.75165175
0.007070678
0.75164999
0.0070615659
0.75164864
0.007051897
0.75164891
0.0070428864
0.75165022
0.0070333331
0.75165251
0.007024431
0.75165572
0.0070155454
0.75165917
0.0070066476
0.75166395
0.0069976859
0.75166935
0.0069879898
0.75167527
0.0069793006
0.7516816
0.0069691473
0.75168826
0.0069592828
0.7516952
0.0069490656
0.75170295
0.0069384656
0.75170968
0.0069280767
0.75171718
0.0069160874
0.75172484
0.0069043207
0.75173267
0.0068921778
0.75174069
0.0068796864
0.75174892
0.006866853
0.75175741
0.0068537085
0.75176619
0.0068402667
0.75177532
0.0068265597
0.75178483
0.006812611
0.75179475
0.0067984519
0.75180514
0.0067841159
0.75181599
0.0067696363
0.75182734
0.0067550556
0.75183917
0.0067404211
0.75185149
0.0067257284
0.75186428
0.0067112194
0.75187755
0.0066960769
0.75189118
0.0066838355
0.0066601266
0.74997551
0.00726132
0.74997481
0.0072304511
0.74997608
0.0071934871
0.74997939
0.007156252
0.74998481
0.0071176047
0.74999309
0.0070786543
0.75000319
0.0070381539
0.75001647
0.0069972569
0.75003179
0.0069547162
0.75005042
0.0069110641
0.75007185
0.006866967
0.75009632
0.0068207218
0.75012418
0.006774781
0.75015641
0.0067267959
0.75019275
0.0066786396
0.75023277
0.006629928
0.75027836
0.0065803937
0.75032768
0.0065316311
0.75038194
0.0064828544
0.75044058
0.0064356925
0.75050435
0.0063894864
0.75057278
0.0063460807
0.75064596
0.0063056468
0.75072382
0.0062690653
0.75080608
0.0062378863
0.75089279
0.0062118856
0.75098196
0.0061931865
0.75107318
0.0061826508
0.75116588