/*--------------------------------*- C++ -*----------------------------------*\
| =========                 |                                                 |
| \\      /  F ield         | OpenFOAM: The Open Source CFD Toolbox           |
|  \\    /   O peration     | Version:  2406                                  |
|   \\  /    A nd           | Website:  www.openfoam.com                      |
|    \\/     M anipulation  |                                                 |
\*---------------------------------------------------------------------------*/
FoamFile
{
    version     2.0;
    format      ascii;
    arch        "LSB;label=32;scalar=64";
    class       volVectorField;
    location    "100";
    object      U;
}
// * * * * * * * * * * * * * * * * * * * * * * * * * * * * * * * * * * * * * //

dimensions      [0 1 -1 0 0 0 0];

internalField   nonuniform List<vector> 
16045
(
(29.999043 0.2425773 0)
(29.999152 0.24249286 0)
(29.999375 0.24238735 0)
(29.999696 0.24226147 0)
(30.000073 0.24212369 0)
(30.000455 0.24198139 0)
(30.000988 0.24182204 -1.3929605e-24)
(30.001849 0.24163319 0)
(30.002789 0.24142987 0)
(30.003321 0.24123984 0)
(30.003535 0.24106566 0)
(30.004272 0.24087712 0)
(30.006181 0.2406439 1.3083829e-24)
(30.008796 0.24036914 0)
(30.010831 0.24008934 0)
(30.011426 0.23984169 0)
(30.011052 0.23963401 0)
(30.011202 0.23943961 -6.0131145e-25)
(30.013205 0.23921936 -5.7462567e-25)
(30.017202 0.23894994 0)
(30.02205 0.23863775 0)
(30.02609 0.23831321 0)
(30.028181 0.23801237 0)
(30.02831 0.23775736 0)
(30.027513 0.23754923 8.9067174e-25)
(30.027256 0.23736985 0)
(30.02869 0.23719468 8.0623078e-25)
(30.032159 0.2370044 4.9246567e-26)
(30.037127 0.23679225 5.9113481e-26)
(30.042494 0.23656621 -3.8270931e-26)
(30.047076 0.23634297 -3.6656353e-26)
(30.050044 0.23614224 7.4216957e-28)
(30.051165 0.2359796 1.5075511e-26)
(30.050794 0.23586202 -3.1557667e-25)
(30.049688 0.23578859 2.5237123e-26)
(30.048714 0.23574998 9.4312235e-28)
(30.048584 0.23573478 -2.6178157e-26)
(30.04968 0.23573047 0)
(30.051995 0.23572836 -1.0379213e-26)
(30.055191 0.23572389 -8.6754582e-26)
(30.058727 0.23571645 0)
(30.06202 0.23570932 0)
(30.064582 0.23570632 2.1304257e-25)
(30.066113 0.23571228 0)
(30.066537 0.23572988 2.0567783e-25)
(30.065986 0.23576017 0)
(30.064742 0.23580208 0)
(30.063162 0.23585226 0)
(30.061602 0.23590721 0)
(30.060354 0.23596187 0)
(30.059608 0.23601294 0)
(30.059436 0.23605658 0)
(30.059809 0.23609111 0)
(30.060616 0.23611503 0)
(30.061697 0.23612828 0)
(30.062879 0.23613135 0)
(30.064002 0.23612501 0)
(30.064934 0.23611075 -2.0089752e-25)
(30.065588 0.23608937 0)
(30.065926 0.23606223 0)
(30.065951 0.23602953 0)
(30.065705 0.23599166 0)
(30.065256 0.23594804 0)
(30.064687 0.235898 0)
(30.06408 0.23584054 0)
(30.063509 0.23577439 0)
(30.063032 0.23569868 3.2800169e-26)
(30.062689 0.23561216 0)
(30.062498 0.23551452 0)
(30.062462 0.23540495 0)
(30.062569 0.23528362 0)
(30.062799 0.23515011 0)
(30.063128 0.23500471 0)
(30.063531 0.23484722 0)
(30.063983 0.23467797 0)
(30.064464 0.23449698 0)
(30.064958 0.2343047 0)
(30.06545 0.23410144 0)
(30.065933 0.23388772 0)
(30.066398 0.23366406 0)
(30.066843 0.23343106 0)
(30.067267 0.23318935 0)
(30.067671 0.23293954 0)
(30.068057 0.23268226 0)
(30.068431 0.23241811 0)
(30.068798 0.23214763 0)
(30.069165 0.23187134 0)
(30.069539 0.23158961 0)
(30.069929 0.23130282 0)
(30.07034 0.23101118 0)
(30.070781 0.23071494 0)
(30.071255 0.23041415 0)
(30.071765 0.23010903 0)
(30.072314 0.22979948 0)
(30.072894 0.22948611 0)
(30.073518 0.2291676 0)
(30.074138 0.22884988 0)
(30.074859 0.22851267 0)
(30.075349 0.22824026 0)
(30.076407 0.22771989 0)
(29.999036 0.24251207 0)
(29.999112 0.2422938 0)
(29.999299 0.24204521 -1.4345785e-24)
(29.99959 0.24177172 0)
(29.999949 0.24148823 0)
(30.00031 0.24119984 0)
(30.000799 0.24088027 1.4118349e-24)
(30.001613 0.2405156 0)
(30.00254 0.24014411 1.3872683e-24)
(30.003091 0.23981429 0)
(30.003309 0.23951533 0)
(30.003995 0.23917849 0)
(30.005816 0.23875118 -1.3260977e-24)
(30.008365 0.23825828 0)
(30.010401 0.23778527 0)
(30.011055 0.23740429 0)
(30.010743 0.23711512 -1.8844508e-24)
(30.010905 0.23684712 6.2849782e-25)
(30.012853 0.23651492 1.1899849e-24)
(30.016758 0.23607826 -1.0735922e-24)
(30.021529 0.23556538 0)
(30.025551 0.23505287 0)
(30.027691 0.23461998 1.6242822e-24)
(30.027916 0.23430882 8.5198529e-25)
(30.027221 0.23410988 -9.059186e-25)
(30.027036 0.23397388 0)
(30.028497 0.23384141 -8.6575237e-25)
(30.031949 0.23366963 0)
(30.036882 0.23344815 0)
(30.042222 0.23319902 0)
(30.046806 0.2329636 6.6247825e-26)
(30.049815 0.23278686 -6.6243413e-26)
(30.05101 0.23270131 0)
(30.050734 0.2327191 2.3567052e-25)
(30.049724 0.23283113 9.0008692e-26)
(30.04883 0.23301177 0)
(30.048755 0.23322925 4.7932925e-26)
(30.049876 0.23345291 -1.1645213e-26)
(30.052191 0.23366161 -3.6283411e-26)
(30.055368 0.23384504 3.3023475e-27)
(30.058878 0.23400364 0)
(30.062145 0.23414533 0)
(30.064685 0.2342811 3.34293e-27)
(30.066201 0.23442221 0)
(30.066617 0.23457591 -2.0645489e-25)
(30.06606 0.23474495 0)
(30.064809 0.23492656 7.4738949e-26)
(30.063217 0.23511419 0)
(30.061637 0.23529937 0)
(30.06036 0.23547288 9.4505861e-26)
(30.059575 0.23562731 -9.9670294e-26)
(30.059358 0.23575663 0)
(30.059679 0.23585784 0)
(30.060431 0.23592964 0)
(30.061458 0.23597343 -5.522756e-26)
(30.062589 0.23599199 -8.3331198e-26)
(30.063663 0.23598942 0)
(30.064551 0.23597045 2.0772907e-25)
(30.065168 0.23593949 0)
(30.065472 0.23590056 0)
(30.065467 0.23585619 0)
(30.065195 0.23580793 -1.4933226e-25)
(30.064723 0.23575563 0)
(30.064131 0.23569825 0)
(30.063502 0.23563385 0)
(30.062908 0.23556026 0)
(30.062409 0.23547548 -3.5779414e-26)
(30.062044 0.23537791 0)
(30.06183 0.23526688 0)
(30.061771 0.23514206 0)
(30.061856 0.23500383 5.6410667e-26)
(30.062063 0.23485226 0)
(30.062369 0.23468763 0)
(30.062747 0.23450977 0)
(30.063173 0.2343187 0)
(30.063626 0.23411434 0)
(30.064089 0.23389699 0)
(30.064548 0.23366703 0)
(30.064994 0.2334251 0)
(30.065419 0.2331719 0)
(30.06582 0.2329083 0)
(30.066196 0.23263521 0)
(30.066547 0.23235356 0)
(30.066876 0.23206423 0)
(30.067189 0.23176805 0)
(30.067491 0.23146573 0)
(30.067789 0.23115783 0)
(30.068091 0.23084479 0)
(30.068404 0.23052698 0)
(30.068737 0.23020467 0)
(30.069095 0.22987813 0)
(30.069485 0.22954757 0)
(30.06991 0.22921334 0)
(30.070373 0.22887577 0)
(30.070866 0.22853585 0)
(30.071403 0.22819327 0)
(30.071939 0.22785418 0)
(30.072577 0.22750141 0)
(30.072997 0.22721542 0)
(30.073996 0.22668989 0)
(29.999034 0.24245379 0)
(29.999099 0.24213571 0)
(29.999276 0.24179755 1.4345941e-24)
(29.999563 0.24144672 0)
(29.99992 0.241088 0)
(30.000266 0.24071466 0)
(30.000725 0.24031137 7.0759058e-25)
(30.001527 0.23988429 -7.0758625e-25)
(30.002478 0.23946882 -1.3873173e-24)
(30.003061 0.23908676 0)
(30.003265 0.23870716 0)
(30.003887 0.23827034 0)
(30.005641 0.23775404 1.3466556e-24)
(30.008183 0.23720762 0)
(30.010281 0.23671531 0)
(30.011021 0.23632545 6.0939889e-25)
(30.010753 0.23600967 1.8769707e-24)
(30.010883 0.23568454 0)
(30.012745 0.23527354 -1.2086796e-24)
(30.016569 0.23475959 1.0736722e-24)
(30.021314 0.23419501 -4.4416573e-25)
(30.025386 0.23366967 8.7470065e-25)
(30.02763 0.233261 4.2226987e-25)
(30.027968 0.23299779 8.5443323e-25)
(30.027352 0.23285229 0)
(30.027193 0.23276127 1.8509875e-24)
(30.02863 0.23265927 0)
(30.032036 0.23250672 1.4900474e-24)
(30.036932 0.23230319 0)
(30.042267 0.2320823 9.9507109e-25)
(30.046889 0.23189599 1.1726665e-25)
(30.049972 0.23179504 0)
(30.05126 0.23181232 7.2132661e-26)
(30.051076 0.23195532 -7.212781e-26)
(30.050137 0.23220558 0)
(30.049285 0.23252774 4.1661479e-25)
(30.049219 0.23288018 9.3536798e-26)
(30.050323 0.23322641 -9.353139e-26)
(30.052605 0.23354227 0)
(30.055745 0.23381773 5.0968351e-27)
(30.059223 0.23405558 5.0986833e-26)
(30.062466 0.23426631 -1.6030321e-25)
(30.064993 0.23446412 -2.2216159e-25)
(30.066506 0.23466197 4.9005609e-25)
(30.066922 0.23486839 2.1827963e-25)
(30.066366 0.23508581 0)
(30.06511 0.23531014 9.0615455e-26)
(30.063505 0.23553349 -7.3570702e-27)
(30.061904 0.23574572 3.699385e-26)
(30.060599 0.23593757 -1.3149916e-25)
(30.059779 0.23610108 9.9670001e-26)
(30.059522 0.23623113 0)
(30.059804 0.23632478 0)
(30.060517 0.23638159 0)
(30.061508 0.2364037 0)
(30.062607 0.23639538 5.8340982e-26)
(30.063655 0.23636279 -1.7428911e-26)
(30.064523 0.23631251 3.067279e-25)
(30.065125 0.2362511 0)
(30.065419 0.23618381 0)
(30.065407 0.23611443 0)
(30.06513 0.23604469 1.4933267e-25)
(30.064653 0.23597425 -1.0929192e-25)
(30.064056 0.23590114 0)
(30.06342 0.23582222 -2.6172835e-26)
(30.06282 0.23573435 0)
(30.062312 0.23563474 0)
(30.061937 0.23552193 0)
(30.061715 0.23539549 0)
(30.061648 0.23525626 0)
(30.061724 0.23510517 -5.6411101e-26)
(30.061924 0.23494311 0)
(30.062221 0.23477012 3.2909428e-26)
(30.062589 0.23458576 0)
(30.063005 0.23438923 0)
(30.063446 0.23417991 0)
(30.063896 0.23395754 0)
(30.064341 0.23372232 0)
(30.064771 0.23347483 0)
(30.065179 0.23321593 0)
(30.065561 0.23294675 0)
(30.065916 0.23266857 0)
(30.066245 0.23238266 0)
(30.066551 0.23209016 0)
(30.066837 0.23179199 0)
(30.067111 0.23148878 0)
(30.067378 0.2311809 0)
(30.067647 0.23086848 0)
(30.067924 0.23055152 0)
(30.06822 0.23023002 0)
(30.068539 0.22990391 0)
(30.068888 0.22957324 0)
(30.069271 0.22923816 0)
(30.069691 0.22889907 0)
(30.070141 0.2285571 0)
(30.070635 0.22821218 0)
(30.071129 0.22787105 0)
(30.071723 0.22751525 0)
(30.072112 0.22722891 0)
(30.073023 0.22668661 0)
(29.999033 0.24240249 0)
(29.999092 0.24198766 0)
(29.99926 0.24155192 0)
(29.999534 0.24110059 0)
(29.999872 0.24063066 0)
(30.000193 0.24013947 0)
(30.000633 0.23963089 0)
(30.001431 0.2391156 0)
(30.002389 0.23860257 0)
(30.002963 0.23808567 0)
(30.003126 0.23754214 0)
(30.003689 0.23695382 0)
(30.005409 0.23633327 -2.0456765e-24)
(30.007969 0.23572442 -6.5906369e-25)
(30.010125 0.23517102 0)
(30.010915 0.2346798 -3.7067199e-24)
(30.010648 0.2342116 1.269088e-24)
(30.01072 0.23370857 -3.1780815e-24)
(30.012501 0.23313619 1.8306995e-24)
(30.016271 0.23250919 0)
(30.021025 0.23188584 1.9111898e-24)
(30.02517 0.23133748 -8.4377589e-25)
(30.027524 0.23091276 -1.6336906e-24)
(30.027964 0.23061653 4.7052172e-27)
(30.027409 0.23041277 0)
(30.027259 0.23024589 -2.3015317e-24)
(30.028668 0.2300682 2.2026555e-24)
(30.032037 0.22985963 -1.490168e-24)
(30.036915 0.22963347 0)
(30.042273 0.22942893 8.3250612e-27)
(30.046962 0.22929561 -2.9134585e-25)
(30.050146 0.22927681 -1.2409846e-25)
(30.05155 0.22939618 -3.765559e-25)
(30.051476 0.22965177 0)
(30.050621 0.23001849 0)
(30.049819 0.23045677 -4.1663278e-25)
(30.04977 0.23092444 0)
(30.050866 0.23138643 6.8993724e-26)
(30.053126 0.23182078 -6.8989556e-26)
(30.056243 0.23221926 8.4546987e-26)
(30.059702 0.23258458 6.7570196e-27)
(30.062937 0.23292614 -1.7403576e-25)
(30.065467 0.2332553 4.6895602e-25)
(30.066989 0.23358179 1.6548989e-26)
(30.067419 0.23391079 2.3647322e-25)
(30.066874 0.23424176 3.3675028e-25)
(30.065622 0.23456866 1.9735571e-26)
(30.064013 0.23488211 7.3569943e-27)
(30.062398 0.23517217 8.7487047e-26)
(30.06107 0.23543029 0)
(30.060222 0.23565023 0)
(30.059933 0.23582797 1.3424449e-25)
(30.06018 0.23596165 0)
(30.060858 0.23605129 0)
(30.061817 0.23609953 0)
(30.062888 0.23611171 0)
(30.063913 0.2360951 0)
(30.064765 0.23605763 -2.0907951e-25)
(30.065355 0.23600661 -5.447151e-25)
(30.06564 0.23594809 3.1707239e-25)
(30.065624 0.23588611 -1.8654139e-25)
(30.065342 0.2358225 -1.5185216e-25)
(30.064858 0.23575651 1.092913e-25)
(30.064253 0.23568538 0)
(30.063606 0.23560519 -8.2175571e-28)
(30.062992 0.23551211 8.0309362e-27)
(30.062469 0.23540348 0)
(30.062079 0.23527836 0)
(30.061844 0.2351376 0)
(30.061765 0.2349832 0)
(30.061831 0.23481742 0)
(30.062022 0.23464163 0)
(30.06231 0.23445594 -3.2909481e-26)
(30.062669 0.23425928 1.9096952e-26)
(30.063075 0.23405002 0)
(30.063506 0.23382663 0)
(30.063946 0.23358825 0)
(30.064381 0.23333481 0)
(30.064802 0.23306698 0)
(30.065202 0.23278607 0)
(30.065576 0.23249378 0)
(30.065925 0.23219203 0)
(30.066249 0.23188273 0)
(30.06655 0.2315675 0)
(30.066832 0.23124752 0)
(30.0671 0.23092346 0)
(30.067362 0.23059554 0)
(30.067625 0.23026361 0)
(30.067896 0.22992732 0)
(30.068183 0.22958629 0)
(30.068494 0.22924023 0)
(30.068835 0.22888897 0)
(30.069208 0.22853268 0)
(30.069618 0.2281718 0)
(30.07006 0.22780783 0)
(30.070545 0.22744081 0)
(30.071032 0.22707849 0)
(30.071623 0.22670057 0)
(30.072006 0.2263985 0)
(30.072952 0.22582021 0)
(29.999032 0.24235404 0)
(29.999087 0.241845 0)
(29.999245 0.24131228 0)
(29.999506 0.24076204 0)
(29.999829 0.24019405 0)
(30.000139 0.23961259 -1.449089e-24)
(30.000574 0.23902323 0)
(30.001366 0.23842436 0)
(30.002308 0.23780791 0)
(30.002856 0.2371681 1.4100266e-24)
(30.002991 0.23650784 -1.4194894e-24)
(30.003537 0.23583896 2.8285547e-24)
(30.005263 0.23517789 1.3580969e-24)
(30.007848 0.23453829 0)
(30.010032 0.23392256 1.2487026e-24)
(30.010831 0.23331838 1.8473555e-24)
(30.010541 0.23270496 -1.279477e-24)
(30.010572 0.23206752 5.7756623e-24)
(30.01232 0.23141081 2.4660572e-24)
(30.016091 0.23076203 1.7029883e-24)
(30.020892 0.23016134 -1.3952957e-24)
(30.025121 0.22964475 1.718063e-24)
(30.027568 0.22922837 0)
(30.028085 0.22890309 -1.7114742e-24)
(30.027573 0.22864099 1.8260667e-24)
(30.027433 0.22841038 -3.729661e-24)
(30.028835 0.22819102 -1.7524336e-24)
(30.032202 0.22798287 0)
(30.037103 0.22780636 0)
(30.04252 0.22769528 2.0096984e-27)
(30.047301 0.22768615 -7.1197173e-25)
(30.050601 0.22780673 2.5190702e-25)
(30.052126 0.22806717 8.6230101e-25)
(30.052157 0.22845701 4.5815657e-25)
(30.051381 0.2289482 -3.5463909e-25)
(30.050622 0.22950363 -6.4099621e-27)
(30.050587 0.23008636 1.9606621e-25)
(30.051674 0.23066722 3.1444815e-25)
(30.053913 0.23122802 0)
(30.057006 0.23176112 -6.7031811e-26)
(30.060445 0.23226679 7.7700218e-26)
(30.063666 0.23274953 6.8884016e-25)
(30.066189 0.23321473 -4.6895389e-25)
(30.067707 0.23366579 2.1818085e-26)
(30.068133 0.23410307 -1.4093356e-24)
(30.067579 0.23452338 2.2780674e-26)
(30.066312 0.23492016 -1.8508581e-25)
(30.064678 0.23528512 5.5072621e-26)
(30.063031 0.2356103 -8.7485423e-26)
(30.061665 0.23589015 0)
(30.060776 0.23612143 -1.5939475e-25)
(30.060444 0.23630287 -2.5618521e-25)
(30.060647 0.23643441 -4.1420268e-26)
(30.061283 0.2365174 6.5578461e-26)
(30.062202 0.23655542 0)
(30.06324 0.2365548 0)
(30.064238 0.23652379 -3.7116109e-25)
(30.06507 0.23647079 0)
(30.065646 0.23640338 4.3781452e-25)
(30.065923 0.23632754 -2.1017463e-25)
(30.0659 0.23624744 1.8653954e-25)
(30.065612 0.23616483 1.5185067e-25)
(30.065123 0.23607888 -1.1188924e-25)
(30.064509 0.23598645 -6.8527344e-26)
(30.06385 0.23588325 2.6994319e-26)
(30.063222 0.2357654 1.5496441e-28)
(30.062686 0.23563062 0)
(30.062284 0.23547889 5.452208e-26)
(30.062038 0.23531227 0)
(30.061952 0.23513407 0)
(30.062014 0.23494747 0)
(30.062202 0.23475429 0)
(30.062487 0.23455438 0)
(30.062843 0.23434595 -1.9096945e-26)
(30.063244 0.23412631 5.6309007e-27)
(30.06367 0.23389292 0)
(30.064104 0.2336441 0)
(30.064534 0.23337944 0)
(30.064951 0.23309974 0)
(30.065348 0.23280681 0)
(30.065723 0.23250298 0)
(30.066073 0.2321908 0)
(30.066399 0.23187269 0)
(30.066704 0.2315506 0)
(30.066991 0.2312258 0)
(30.067264 0.2308988 0)
(30.06753 0.23056944 0)
(30.067795 0.23023703 0)
(30.068069 0.22990061 0)
(30.068357 0.22955918 0)
(30.068668 0.22921195 0)
(30.069009 0.2288585 0)
(30.069381 0.22849888 0)
(30.069791 0.22813363 0)
(30.070233 0.22776436 0)
(30.07072 0.22739139 0)
(30.07121 0.22702275 0)
(30.071805 0.22663806 0)
(30.072194 0.22632977 0)
(30.073119 0.22573567 0)
(29.999032 0.24230767 0)
(29.999083 0.24170786 0)
(29.999231 0.24108111 0)
(29.99948 0.24043691 0)
(29.999792 0.23977728 0)
(30.000092 0.23910429 1.4491208e-24)
(30.000512 0.23841639 -1.458393e-24)
(30.001281 0.23770724 1.44564e-24)
(30.002195 0.23697321 0)
(30.002721 0.2362213 -1.4100809e-24)
(30.002848 0.23546663 2.8519733e-24)
(30.003397 0.23472106 -5.6823921e-24)
(30.005127 0.23398477 0)
(30.007709 0.23324803 -3.2629696e-24)
(30.009879 0.23250043 -1.2363288e-24)
(30.010656 0.23173935 6.2738432e-25)
(30.010345 0.23097259 0)
(30.010367 0.23021585 2.5717535e-26)
(30.012124 0.22948788 -3.0548953e-24)
(30.015927 0.22880585 6.1014098e-25)
(30.02078 0.22818253 -3.8984966e-24)
(30.025068 0.22762438 -2.5647497e-24)
(30.027572 0.22713108 4.18293e-24)
(30.028134 0.22669699 0)
(30.027653 0.22631495 -5.0408069e-24)
(30.027536 0.22598115 3.2671068e-24)
(30.028962 0.22569884 3.5431765e-24)
(30.032368 0.22547931 6.724129e-25)
(30.037331 0.22534037 -1.7091852e-25)
(30.042833 0.22530325 -2.8414157e-26)
(30.047721 0.22538773 9.3273572e-25)
(30.051139 0.22560615 2.3278383e-25)
(30.052778 0.22595846 -9.1308233e-25)
(30.052907 0.22643064 -5.5510165e-25)
(30.052204 0.22699779 0)
(30.051491 0.22763014 1.8972837e-25)
(30.051477 0.22829947 -1.8971311e-25)
(30.052569 0.22898318 -6.1458047e-25)
(30.054803 0.22966556 0)
(30.057887 0.23033691 6.9854433e-26)
(30.061316 0.23099185 -3.0096284e-25)
(30.064529 0.23162716 2.7288764e-26)
(30.067042 0.23223968 0)
(30.068551 0.23282533 2.7335241e-26)
(30.068963 0.23337946 -5.4008643e-26)
(30.06839 0.23389709 -4.3316433e-25)
(30.067096 0.23437256 7.3643093e-26)
(30.06543 0.23479965 -5.5071457e-26)
(30.063744 0.23517317 0)
(30.062337 0.23549039 -2.4679667e-25)
(30.061404 0.23575126 1.5939115e-25)
(30.061028 0.23595715 3.372368e-25)
(30.061187 0.23610996 4.1419361e-26)
(30.06178 0.23621222 -6.5577072e-26)
(30.062661 0.23626817 0)
(30.063665 0.23628435 2.9387122e-25)
(30.064638 0.23626875 7.479763e-25)
(30.065449 0.2362292 0)
(30.06601 0.23617245 4.4528099e-25)
(30.066275 0.2361039 0)
(30.066243 0.23602746 0)
(30.065948 0.23594508 -1.5488801e-25)
(30.065449 0.23585618 1.118881e-25)
(30.064822 0.23575777 -7.7266093e-28)
(30.064149 0.23564562 -2.754894e-26)
(30.063504 0.23551601 -8.1857894e-27)
(30.062951 0.23536717 3.6920035e-26)
(30.062534 0.23519984 -5.4521762e-26)
(30.062277 0.23501712 6.5859825e-26)
(30.062184 0.23482334 0)
(30.062242 0.23462242 6.1789564e-26)
(30.062428 0.23441643 0)
(30.062711 0.23420502 0)
(30.063063 0.23398577 0)
(30.063458 0.23375517 -5.6308894e-27)
(30.063876 0.23350986 -6.5242138e-27)
(30.064303 0.23324757 0)
(30.064725 0.2329677 0)
(30.065137 0.23267137 0)
(30.06553 0.23236098 0)
(30.065904 0.23203962 0)
(30.066255 0.23171051 0)
(30.066585 0.23137654 0)
(30.066894 0.2310399 0)
(30.067186 0.23070187 0)
(30.067464 0.23036268 0)
(30.067733 0.23002173 0)
(30.068 0.22967776 0)
(30.068274 0.2293292 0)
(30.068561 0.22897453 0)
(30.06887 0.22861252 0)
(30.069206 0.22824253 0)
(30.069575 0.22786464 0)
(30.069981 0.22747953 0)
(30.070421 0.22708913 0)
(30.070906 0.22669398 0)
(30.071396 0.22630268 0)
(30.071995 0.22589391 0)
(30.072383 0.22556506 0)
(30.073344 0.2249337 0)
(29.999031 0.24226311 0)
(29.999078 0.24157647 0)
(29.99922 0.24085952 0)
(29.999458 0.24012459 -1.4802539e-24)
(29.999757 0.23937268 0)
(30.000041 0.23860269 -1.4749e-24)
(30.000441 0.23781235 1.4584305e-24)
(30.001187 0.23700053 -1.4456834e-24)
(30.002083 0.23617114 0)
(30.002601 0.23533373 0)
(30.002728 0.2344974 -1.4324846e-24)
(30.003273 0.23366292 5.0303727e-24)
(30.004989 0.23282154 -2.0866789e-24)
(30.007547 0.2319631 1.9764036e-24)
(30.009693 0.23108701 2.5661592e-24)
(30.010456 0.23020675 6.3453706e-25)
(30.010152 0.22934467 0)
(30.010198 0.22852175 -2.6061268e-24)
(30.01199 0.22774949 0)
(30.015832 0.22702858 -1.7146482e-24)
(30.020722 0.22635411 2.4469241e-24)
(30.025046 0.22572236 -2.584826e-24)
(30.027586 0.22513534 8.9246584e-25)
(30.028186 0.2246018 -1.7507285e-24)
(30.027752 0.22413548 8.2813171e-24)
(30.027691 0.22375204 -2.8610042e-24)
(30.029187 0.22346582 -4.4578201e-24)
(30.032674 0.22328799 6.7291333e-25)
(30.037731 0.22322704 -6.7285622e-25)
(30.04334 0.22329009 -3.2975017e-24)
(30.048343 0.223483 0)
(30.051876 0.22380802 0)
(30.053625 0.22426077 -4.1150649e-25)
(30.053849 0.22482912 3.02925e-25)
(30.053222 0.22549471 -6.2749043e-25)
(30.052565 0.2262364 0)
(30.05259 0.22703326 0)
(30.053705 0.22786607 5.821419e-25)
(30.055951 0.22871756 -5.6399799e-26)
(30.059037 0.22957215 5.6395517e-26)
(30.062461 0.23041577 3.6177366e-25)
(30.065662 0.23123528 -3.8178133e-25)
(30.068156 0.23201841 0)
(30.069637 0.23275437 -5.5573526e-25)
(30.070016 0.23343491 1.0085564e-24)
(30.069404 0.23405465 0)
(30.068067 0.23460991 5.2080227e-25)
(30.066352 0.23509753 0)
(30.064614 0.23551534 0)
(30.063153 0.2358637 2.4678905e-25)
(30.062168 0.23614579 -2.4859111e-25)
(30.06174 0.23636614 -2.0010821e-25)
(30.06185 0.23652906 -7.7457652e-27)
(30.062396 0.23663876 1.6752194e-25)
(30.063234 0.23670022 3.9799025e-25)
(30.064201 0.23671982 -2.9386423e-25)
(30.065141 0.23670476 -3.7681327e-25)
(30.065927 0.23666195 4.3471721e-25)
(30.066466 0.23659743 5.1460089e-27)
(30.066714 0.23651633 0)
(30.066668 0.23642297 0)
(30.066359 0.23632018 1.5488567e-25)
(30.065847 0.23620842 0)
(30.065204 0.23608551 -2.8629954e-28)
(30.064513 0.23594774 8.1862255e-26)
(30.06385 0.23579173 9.737747e-27)
(30.063279 0.23561606 -3.6919672e-26)
(30.062847 0.23542209 0)
(30.06258 0.23521365 2.388439e-27)
(30.062482 0.23499575 6.9709598e-26)
(30.062538 0.23477284 -6.178919e-26)
(30.062724 0.23454722 0)
(30.063008 0.23431838 0)
(30.063358 0.23408347 0)
(30.06375 0.23383839 0)
(30.064163 0.2335792 6.5241898e-27)
(30.064583 0.23330317 -1.6604079e-26)
(30.065001 0.23300955 0)
(30.065409 0.23269963 0)
(30.065802 0.23237622 0)
(30.066178 0.23204293 0)
(30.066535 0.23170343 0)
(30.066872 0.23136084 0)
(30.06719 0.23101733 0)
(30.06749 0.23067391 0)
(30.067775 0.23033041 0)
(30.068051 0.22998567 0)
(30.068322 0.2296379 0)
(30.068597 0.22928502 0)
(30.068884 0.22892508 0)
(30.069191 0.22855655 0)
(30.069524 0.22817861 0)
(30.06989 0.22779133 0)
(30.070293 0.22739562 0)
(30.07073 0.22699373 0)
(30.071216 0.22658656 0)
(30.071707 0.22618303 0)
(30.072307 0.22576185 0)
(30.072701 0.22542201 0)
(30.073642 0.22477073 0)
(29.99903 0.24222035 0)
(29.999075 0.24145045 0)
(29.999208 0.24064599 -7.4435351e-25)
(29.999434 0.23982149 2.2246482e-24)
(29.999718 0.23897735 0)
(29.999984 0.23811267 1.4749309e-24)
(30.000364 0.23722761 1.4880383e-24)
(30.001092 0.23632387 0)
(30.001974 0.23540487 0)
(30.00248 0.23447478 0)
(30.002593 0.23353588 -7.2568135e-25)
(30.00312 0.23258632 7.5788096e-25)
(30.00481 0.23162203 2.792247e-24)
(30.007343 0.23064272 2.6861621e-24)
(30.009474 0.22965726 3.2622752e-24)
(30.010241 0.22868317 -6.4243407e-25)
(30.009957 0.2277396 0)
(30.010033 0.22683906 0)
(30.011855 0.22598334 0)
(30.015721 0.22516648 3.5144884e-24)
(30.02063 0.22438278 1.0644443e-24)
(30.024976 0.22363434 6.2046373e-24)
(30.027549 0.22293396 -2.5088646e-24)
(30.0282 0.22230329 4.4456788e-24)
(30.027837 0.22176752 -4.6127691e-24)
(30.027865 0.22134894 3.7757467e-24)
(30.029461 0.22106183 7.1351273e-24)
(30.033056 0.22091144 0)
(30.038223 0.22089722 -9.9183623e-25)
(30.043944 0.22101745 2.6322918e-24)
(30.04906 0.22127157 2.4236568e-25)
(30.052706 0.22165926 -4.5320184e-25)
(30.054563 0.22217785 1.6671851e-24)
(30.054886 0.22282037 2.3539616e-25)
(30.054345 0.22357553 6.5837181e-25)
(30.053762 0.22442847 -3.3373573e-25)
(30.053844 0.22536144 0)
(30.055001 0.22635398 -1.7371428e-25)
(30.057274 0.22738325 -1.0828977e-25)
(30.060371 0.22842523 0)
(30.063789 0.22945592 2.878248e-25)
(30.066969 0.23045257 9.2050917e-25)
(30.069429 0.2313953 1.1848768e-24)
(30.070866 0.23226865 0)
(30.071193 0.23306254 0)
(30.070525 0.23377221 -8.9623814e-25)
(30.069129 0.23439665 -5.2078382e-25)
(30.067352 0.23493623 0)
(30.065553 0.23539217 0)
(30.064031 0.23576779 -1.6114768e-25)
(30.062988 0.23606913 2.4858253e-25)
(30.062507 0.23630335 -1.4780493e-25)
(30.062566 0.23647696 2.1244933e-28)
(30.063065 0.23659558 6.4020968e-26)
(30.063859 0.23666448 -3.7133814e-25)
(30.064787 0.23668923 -6.3789678e-26)
(30.065693 0.23667575 0)
(30.066449 0.23662991 -4.3470708e-25)
(30.066963 0.23655731 -4.5040909e-25)
(30.06719 0.23646341 0)
(30.067127 0.23635338 3.8615798e-25)
(30.066802 0.23623125 3.1429747e-25)
(30.066275 0.23609863 2.2875694e-25)
(30.065616 0.23595421 6.9583848e-26)
(30.064906 0.23579474 -1.9792223e-27)
(30.064224 0.23561696 -3.2609088e-26)
(30.063634 0.23541955 -4.0929942e-26)
(30.063188 0.23520405 0)
(30.062912 0.23497464 -6.8247221e-26)
(30.06281 0.23473671 -6.9709027e-26)
(30.062867 0.23449503 0)
(30.063055 0.2342521 0)
(30.06334 0.23400742 0)
(30.063691 0.23375791 0)
(30.06408 0.23349913 0)
(30.064489 0.23322673 0)
(30.064904 0.23293767 1.6604029e-26)
(30.065317 0.23263104 0)
(30.065722 0.2323081 0)
(30.066117 0.23197182 0)
(30.066497 0.23162607 0)
(30.066861 0.23127473 0)
(30.067207 0.23092102 0)
(30.067534 0.23056699 0)
(30.067844 0.23021337 0)
(30.068138 0.22985962 0)
(30.068419 0.22950421 0)
(30.068694 0.22914497 0)
(30.06897 0.22877956 0)
(30.069255 0.22840575 0)
(30.069558 0.22802185 0)
(30.069887 0.22762691 0)
(30.070247 0.22722105 0)
(30.070645 0.22680531 0)
(30.071078 0.2263823 0)
(30.071562 0.22595319 0)
(30.072052 0.22552743 0)
(30.072655 0.22508279 0)
(30.073049 0.22472308 0)
(30.074019 0.22403655 0)
(29.99903 0.24217934 0)
(29.999071 0.24132957 0)
(29.999196 0.24044064 1.5138721e-24)
(29.999409 0.23952944 0)
(29.999678 0.23859688 0)
(29.999926 0.23764275 1.5070477e-24)
(30.000288 0.23666763 -1.4880747e-24)
(30.000996 0.23567215 -2.9860411e-24)
(30.001859 0.23465713 0)
(30.002345 0.23362444 0)
(30.002438 0.23257674 0)
(30.002942 0.23151612 3.5669878e-26)
(30.004612 0.23044431 0)
(30.007129 0.22936519 2.7579874e-24)
(30.009255 0.22828727 -5.1741622e-24)
(30.01003 0.22722305 -4.5828123e-24)
(30.009762 0.22618469 -6.5799934e-25)
(30.009858 0.22517954 0)
(30.011697 0.22420882 0)
(30.015578 0.22327109 -3.5007703e-24)
(30.020505 0.22236868 -1.0785323e-24)
(30.024881 0.22151253 -1.0793242e-23)
(30.027504 0.22072279 -6.9426843e-24)
(30.028229 0.22002554 -3.5405396e-24)
(30.027962 0.21944732 1.8900947e-24)
(30.028103 0.21900891 5.7427117e-24)
(30.029819 0.21872102 -5.483225e-24)
(30.033535 0.21858485 -1.6523399e-24)
(30.038822 0.21859684 0)
(30.044662 0.2187541 0)
(30.049898 0.2190569 -5.8314544e-25)
(30.053666 0.21950742 -6.8427326e-26)
(30.055643 0.22010677 -7.76201e-25)
(30.056084 0.22085236 -8.3188188e-25)
(30.055652 0.22173651 -7.9868336e-25)
(30.055166 0.22274572 -3.1338075e-25)
(30.05533 0.22386017 0)
(30.056549 0.22505383 0)
(30.05886 0.22629569 0)
(30.06197 0.22755222 0)
(30.065378 0.22878994 1.0553407e-25)
(30.068526 0.22997811 -9.2048181e-25)
(30.070936 0.2310914 -1.1848348e-24)
(30.07231 0.23211149 2.6792698e-24)
(30.072567 0.2330275 0)
(30.071825 0.23383588 2.8310502e-24)
(30.070355 0.23453858 0)
(30.068505 0.23513974 -6.4285095e-25)
(30.066634 0.23564392 1.1070323e-25)
(30.065044 0.2360569 3.8655089e-25)
(30.063937 0.23638659 0)
(30.063397 0.23664181 1.4779895e-25)
(30.063402 0.23683067 -2.1244127e-28)
(30.06385 0.23695999 -2.0181841e-25)
(30.064597 0.23703543 4.4704455e-25)
(30.065481 0.23706198 6.4572965e-25)
(30.066347 0.23704463 0)
(30.067067 0.23698884 0)
(30.067549 0.23690065 0)
(30.06775 0.23678667 -8.783412e-25)
(30.067664 0.23665349 2.2520252e-27)
(30.067321 0.23650644 -3.1429118e-25)
(30.066776 0.23634814 -1.0051614e-28)
(30.066099 0.23617804 1.3718436e-25)
(30.06537 0.2359933 -5.2332911e-26)
(30.064667 0.23579085 -4.2566101e-27)
(30.064059 0.23556951 -2.0323092e-26)
(30.063597 0.23533097 -9.0143009e-26)
(30.063311 0.23507961 0)
(30.063206 0.23482101 0)
(30.063265 0.2345602 0)
(30.063456 0.23429993 0)
(30.063746 0.23403981 0)
(30.064098 0.2337767 0)
(30.064487 0.23350588 0)
(30.064892 0.23322262 0)
(30.065304 0.23292355 0)
(30.065714 0.23260746 0)
(30.06612 0.23227538 0)
(30.066517 0.23193017 0)
(30.066904 0.23157571 0)
(30.067277 0.23121597 0)
(30.067635 0.23085422 0)
(30.067975 0.23049251 0)
(30.068296 0.23013147 0)
(30.0686 0.22977037 0)
(30.068889 0.22940749 0)
(30.069169 0.22904051 0)
(30.069447 0.22866688 0)
(30.069731 0.22828419 0)
(30.070032 0.22789059 0)
(30.070356 0.22748505 0)
(30.070711 0.22706766 0)
(30.071105 0.22663954 0)
(30.071536 0.22620344 0)
(30.072018 0.22576074 0)
(30.072509 0.22532118 0)
(30.073114 0.2248622 0)
(30.073513 0.22448996 0)
(30.07447 0.2237801 0)
(29.999029 0.24214022 0)
(29.999067 0.24121405 1.5331363e-24)
(29.999183 0.2402444 -1.5138842e-24)
(29.999383 0.23925019 0)
(29.999635 0.2382327 7.6793966e-25)
(29.999864 0.23719153 -2.274233e-24)
(30.000205 0.2361267 -3.0472496e-24)
(30.00089 0.23503785 2.9861257e-24)
(30.001729 0.23392525 0)
(30.002192 0.23279166 -7.425085e-25)
(30.002263 0.23164187 -9.973009e-28)
(30.002748 0.23047994 -2.206718e-24)
(30.004399 0.22930783 5.0975551e-24)
(30.006902 0.22812739 -4.7420182e-24)
(30.009018 0.22694376 -6.6427818e-24)
(30.009791 0.22576643 1.3212741e-23)
(30.00953 0.22460678 1.7873479e-26)
(30.009635 0.22347432 5.4317092e-24)
(30.011488 0.22237509 -1.1757424e-23)
(30.015387 0.22131379 1.1607573e-23)
(30.020342 0.22029827 6.0468347e-24)
(30.024761 0.21934293 1.458823e-23)
(30.027449 0.21846885 5.1679273e-24)
(30.028263 0.21770121 1.7752704e-24)
(30.028105 0.21706478 0)
(30.028367 0.21657891 -7.6333325e-24)
(30.030212 0.21625424 7.172903e-24)
(30.034057 0.21609377 1.3366082e-24)
(30.039473 0.21609738 -5.943469e-24)
(30.045443 0.21626637 3.1424727e-24)
(30.050816 0.21660497 3.0688089e-24)
(30.054724 0.21711846 3.6923587e-25)
(30.056844 0.21780996 3.6774263e-26)
(30.057426 0.21867769 1.7556689e-25)
(30.057128 0.21971314 -9.7379858e-25)
(30.056762 0.22089972 0)
(30.057024 0.22221216 -2.5341687e-25)
(30.058314 0.22361704 2.5338871e-25)
(30.060666 0.22507493 -3.5618897e-25)
(30.063785 0.2265436 0)
(30.067171 0.22798172 -5.9240362e-25)
(30.070271 0.22935266 -2.2676228e-24)
(30.072613 0.23062754 0)
(30.073905 0.23178639 1.9041107e-25)
(30.074072 0.23281841 0)
(30.07324 0.23372155 -1.9347524e-24)
(30.071682 0.23450038 -1.4319149e-24)
(30.069747 0.23516213 1.4147288e-24)
(30.067795 0.23571397 -3.3862668e-25)
(30.066128 0.23616325 -2.1093349e-25)
(30.064951 0.23651861 2.2120876e-25)
(30.064347 0.23678971 0)
(30.064291 0.23698608 1.455371e-25)
(30.064684 0.23711614 -5.3019189e-25)