# vtk DataFile Version 3.0
Time Step 140, Physical Time = 0.001400s, Residual = 2.47e-03
ASCII
DATASET UNSTRUCTURED_GRID
POINTS 5000 float
0.318712 0.385257 0.000000
-0.318712 0.385257 0.000000
-0.318712 -0.385257 0.000000
0.318712 -0.385257 0.000000
0.093691 0.491144 0.000000
-0.093691 0.491144 0.000000
-0.093691 -0.491144 0.000000
0.093691 -0.491144 0.000000
0.404508 0.293893 0.000000
-0.404508 0.293893 0.000000
-0.404508 -0.293893 0.000000
0.404508 -0.293893 0.000000
0.438153 0.240877 0.000000
-0.438153 0.240877 0.000000
-0.438153 -0.240877 0.000000
0.438153 -0.240877 0.000000
0.500000 0.000000 0.000000
-0.500000 -0.000000 0.000000
0.364484 0.342274 0.000000
-0.364484 0.342274 0.000000
-0.364484 -0.342274 0.000000
0.364484 -0.342274 0.000000
0.496057 0.062667 0.000000
-0.496057 0.062667 0.000000
-0.496057 -0.062667 0.000000
0.496057 -0.062667 0.000000
0.212890 0.452414 0.000000
-0.212890 0.452414 0.000000
-0.212890 -0.452414 0.000000
0.212890 -0.452414 0.000000
0.154508 0.475528 0.000000
-0.154508 0.475528 0.000000
-0.154508 -0.475528 0.000000
0.154508 -0.475528 0.000000
0.267913 0.422164 0.000000
-0.267913 0.422164 0.000000
-0.267913 -0.422164 0.000000
0.267913 -0.422164 0.000000
0.031395 0.499013 0.000000
-0.031395 0.499013 0.000000
-0.031395 -0.499013 0.000000
0.031395 -0.499013 0.000000
0.464888 0.184062 0.000000
-0.464888 0.184062 0.000000
-0.464888 -0.184062 0.000000
0.464888 -0.184062 0.000000
0.484292 0.124345 0.000000
-0.484292 0.124345 0.000000
-0.484292 -0.124345 0.000000
0.484292 -0.124345 0.000000
-0.031454 0.499951 0.000000
0.438977 0.241329 0.000000
-0.268417 0.422957 0.000000
0.365169 0.342917 0.000000
-0.496990 -0.062784 0.000000
0.319311 -0.385981 0.000000
0.405269 0.294445 0.000000
-0.093867 0.492067 0.000000
0.500940 -0.000000 0.000000
-0.213290 0.453264 0.000000
-0.154799 0.476422 0.000000
0.031454 0.499951 0.000000
0.465762 0.184408 0.000000
0.319311 0.385981 0.000000
0.365169 -0.342917 0.000000
0.405269 -0.294445 0.000000
-0.365169 0.342917 0.000000
-0.319311 0.385981 0.000000
0.268417 0.422957 0.000000
0.213290 0.453264 0.000000
-0.319311 -0.385981 0.000000
0.154799 -0.476422 0.000000
-0.485202 -0.124579 0.000000
0.154799 0.476422 0.000000
0.268417 -0.422957 0.000000
0.093867 0.492067 0.000000
-0.031454 -0.499951 0.000000
-0.500940 0.000000 0.000000
0.438977 -0.241329 0.000000
-0.438977 -0.241329 0.000000
0.093867 -0.492067 0.000000
-0.485202 0.124579 0.000000
0.485202 0.124579 0.000000
-0.496990 0.062784 0.000000
0.213290 -0.453264 0.000000
0.031454 -0.499951 0.000000
0.496990 -0.062784 0.000000
0.465762 -0.184408 0.000000
-0.465762 -0.184408 0.000000
-0.213290 -0.453264 0.000000
-0.093867 -0.492067 0.000000
-0.405269 -0.294445 0.000000
0.496990 0.062784 0.000000
0.485202 -0.124579 0.000000
-0.154799 -0.476422 0.000000
-0.365169 -0.342917 0.000000
-0.465762 0.184408 0.000000
-0.438977 0.241329 0.000000
-0.405269 0.294445 0.000000
-0.268417 -0.422957 0.000000
-0.031523 0.501039 0.000000
0.439932 0.241854 0.000000
-0.269001 0.423877 0.000000
0.365964 0.343663 0.000000
-0.498071 -0.062921 0.000000
0.320005 -0.386820 0.000000
0.406150 0.295085 0.000000
-0.094071 0.493137 0.000000
0.502029 -0.000000 0.000000
-0.213754 0.454250 0.000000
-0.155136 0.477458 0.000000
0.031523 0.501039 0.000000
0.466775 0.184809 0.000000
0.365964 -0.343663 0.000000
0.406150 -0.295085 0.000000
0.320005 0.386820 0.000000
-0.365964 0.343663 0.000000
-0.320005 0.386820 0.000000
0.269001 0.423877 0.000000
0.213754 0.454250 0.000000
-0.320005 -0.386820 0.000000
0.155136 -0.477458 0.000000
-0.486257 -0.124850 0.000000
0.155136 0.477458 0.000000
0.269001 -0.423877 0.000000
0.094071 0.493137 0.000000
-0.031523 -0.501039 0.000000
-0.502029 0.000000 0.000000
0.439932 -0.241854 0.000000
-0.439932 -0.241854 0.000000
0.094071 -0.493137 0.000000
-0.486257 0.124850 0.000000
0.486257 0.124850 0.000000
-0.498071 0.062921 0.000000
0.213754 -0.454250 0.000000
0.031523 -0.501039 0.000000
0.466775 -0.184809 0.000000
0.498071 -0.062921 0.000000
-0.466775 -0.184809 0.000000
-0.213754 -0.454250 0.000000
-0.094071 -0.493137 0.000000
-0.406150 -0.295085 0.000000
0.498071 0.062921 0.000000
-0.155136 -0.477458 0.000000
0.486257 -0.124850 0.000000
-0.365964 -0.343663 0.000000
-0.466775 0.184809 0.000000
-0.439932 0.241854 0.000000
-0.406150 0.295085 0.000000
-0.269001 -0.423877 0.000000
-0.031604 0.502329 0.000000
0.441064 0.242477 0.000000
-0.269693 0.424969 0.000000
0.366906 0.344547 0.000000
-0.499353 -0.063083 0.000000
0.320829 -0.387816 0.000000
0.407196 0.295845 0.000000
-0.094313 0.494407 0.000000
0.503322 -0.000000 0.000000
-0.214304 0.455419 0.000000
-0.155535 0.478688 0.000000
0.031604 0.502329 0.000000
0.467977 0.185285 0.000000
0.366906 -0.344547 0.000000
0.407196 -0.295845 0.000000
0.320829 0.387816 0.000000
0.269693 0.424969 0.000000
-0.366906 0.344547 0.000000
-0.320829 0.387816 0.000000
0.214304 0.455419 0.000000
-0.320829 -0.387816 0.000000
0.155535 -0.478688 0.000000
-0.487509 -0.125171 0.000000
0.155535 0.478688 0.000000
0.269693 -0.424969 0.000000
-0.031604 -0.502329 0.000000
0.094313 0.494407 0.000000
-0.503322 0.000000 0.000000
0.441064 -0.242477 0.000000
-0.441064 -0.242477 0.000000
-0.487509 0.125171 0.000000
0.094313 -0.494407 0.000000
0.487509 0.125171 0.000000
-0.499353 0.063083 0.000000
0.214304 -0.455419 0.000000
0.031604 -0.502329 0.000000
0.467977 -0.185285 0.000000
0.499353 -0.063083 0.000000
-0.467977 -0.185285 0.000000
-0.214304 -0.455419 0.000000
-0.094313 -0.494407 0.000000
-0.407196 -0.295845 0.000000
0.499353 0.063083 0.000000
-0.155535 -0.478688 0.000000
0.487509 -0.125171 0.000000
-0.467977 0.185285 0.000000
-0.366906 -0.344547 0.000000
-0.441064 0.242477 0.000000
-0.407196 0.295845 0.000000
-0.269693 -0.424969 0.000000
-0.031700 0.503862 0.000000
0.442411 0.243217 0.000000
-0.270517 0.426266 0.000000
0.368026 0.345599 0.000000
-0.500877 -0.063276 0.000000
0.321809 -0.389000 0.000000
0.408439 0.296748 0.000000
-0.094601 0.495916 0.000000
0.504858 -0.000000 0.000000
-0.214958 0.456810 0.000000
-0.156010 0.480149 0.000000
0.031700 0.503862 0.000000
0.469405 0.185851 0.000000
0.368026 -0.345599 0.000000
0.408439 -0.296748 0.000000
0.321809 0.389000 0.000000
0.270517 0.426266 0.000000
-0.368026 0.345599 0.000000
-0.321809 0.389000 0.000000
0.214958 0.456810 0.000000
-0.321809 -0.389000 0.000000
0.156010 -0.480149 0.000000
0.270517 -0.426266 0.000000
-0.488997 -0.125553 0.000000
0.156010 0.480149 0.000000
-0.031700 -0.503862 0.000000
0.094601 0.495916 0.000000
-0.504858 0.000000 0.000000
0.442411 -0.243217 0.000000
-0.442411 -0.243217 0.000000
-0.488997 0.125553 0.000000
0.094601 -0.495916 0.000000
0.488997 0.125553 0.000000
-0.500877 0.063276 0.000000
0.214958 -0.456810 0.000000
0.031700 -0.503862 0.000000
0.469405 -0.185851 0.000000
0.500877 -0.063276 0.000000
-0.469405 -0.185851 0.000000
-0.214958 -0.456810 0.000000
-0.094601 -0.495916 0.000000
-0.408439 -0.296748 0.000000
-0.469405 0.185851 0.000000
0.500877 0.063276 0.000000
-0.156010 -0.480149 0.000000
0.488997 -0.125553 0.000000
-0.368026 -0.345599 0.000000
-0.442411 0.243217 0.000000
-0.408439 0.296748 0.000000
-0.270517 -0.426266 0.000000
-0.031815 0.505686 0.000000
0.444012 0.244098 0.000000
-0.271496 0.427809 0.000000
0.369358 0.346850 0.000000
-0.502691 -0.063505 0.000000
0.322974 -0.390408 0.000000
0.409918 0.297823 0.000000
-0.094943 0.497711 0.000000
0.506686 -0.000000 0.000000
-0.215736 0.458463 0.000000
-0.156575 0.481887 0.000000
0.031815 0.505686 0.000000
0.369358 -0.346850 0.000000
0.409918 -0.297823 0.000000
0.471105 0.186524 0.000000
0.322974 0.390408 0.000000
0.271496 0.427809 0.000000
-0.369358 0.346850 0.000000
-0.322974 0.390408 0.000000
0.215736 0.458463 0.000000
0.156575 -0.481887 0.000000
-0.322974 -0.390408 0.000000
0.271496 -0.427809 0.000000
-0.490768 -0.126008 0.000000
0.156575 0.481887 0.000000
-0.031815 -0.505686 0.000000
0.094943 0.497711 0.000000
-0.506686 0.000000 0.000000
0.444012 -0.244098 0.000000
-0.490768 0.126008 0.000000
-0.444012 -0.244098 0.000000
0.094943 -0.497711 0.000000
0.490768 0.126008 0.000000
-0.502691 0.063505 0.000000
0.215736 -0.458463 0.000000
0.031815 -0.505686 0.000000
0.471105 -0.186524 0.000000
-0.471105 -0.186524 0.000000
0.502691 -0.063505 0.000000
-0.215736 -0.458463 0.000000
-0.094943 -0.497711 0.000000
-0.409918 -0.297823 0.000000
-0.471105 0.186524 0.000000
0.502691 0.063505 0.000000
-0.156575 -0.481887 0.000000
0.490768 -0.126008 0.000000
-0.369358 -0.346850 0.000000
-0.444012 0.244098 0.000000
-0.409918 0.297823 0.000000
-0.271496 -0.427809 0.000000
-0.031952 0.507855 0.000000
0.445917 0.245145 0.000000
-0.272661 0.429644 0.000000
0.370943 0.348338 0.000000
-0.504847 -0.063777 0.000000
0.324359 -0.392083 0.000000
0.411676 0.299100 0.000000
-0.095351 0.499846 0.000000
0.508859 -0.000000 0.000000
-0.216662 0.460430 0.000000
-0.157246 0.483954 0.000000
0.031952 0.507855 0.000000
0.370943 -0.348338 0.000000
0.411676 -0.299100 0.000000
0.324359 0.392083 0.000000
0.473126 0.187324 0.000000
0.272661 0.429644 0.000000
-0.370943 0.348338 0.000000
-0.324359 0.392083 0.000000
0.216662 0.460430 0.000000
0.157246 -0.483954 0.000000
-0.324359 -0.392083 0.000000
0.272661 -0.429644 0.000000
0.157246 0.483954 0.000000
-0.492873 -0.126548 0.000000
-0.031952 -0.507855 0.000000
0.095351 0.499846 0.000000
0.445917 -0.245145 0.000000
-0.508859 0.000000 0.000000
-0.492873 0.126548 0.000000
-0.445917 -0.245145 0.000000
0.095351 -0.499846 0.000000
-0.504847 0.063777 0.000000
0.216662 -0.460430 0.000000
0.492873 0.126548 0.000000
0.031952 -0.507855 0.000000
0.473126 -0.187324 0.000000
-0.473126 -0.187324 0.000000
0.504847 -0.063777 0.000000
-0.216662 -0.460430 0.000000
-0.095351 -0.499846 0.000000
-0.473126 0.187324 0.000000
-0.411676 -0.299100 0.000000
-0.157246 -0.483954 0.000000
0.504847 0.063777 0.000000
0.492873 -0.126548 0.000000
-0.370943 -0.348338 0.000000
-0.445917 0.245145 0.000000
-0.411676 0.299100 0.000000
-0.272661 -0.429644 0.000000
0.318712 0.385257 0.100000
-0.318712 0.385257 0.100000
[...]
POINT_DATA 5000
SCALARS pressure float 1
LOOKUP_TABLE default
101794.594969
101794.594969
101794.594969
101794.594969
101794.594969
101794.594969
101794.594969
101794.594969
101794.594969
101794.594969
101794.594969
101794.594969
101794.594969
101794.594969
101794.594969
101794.594969
101325.000000
101325.000000
101325.000000
101325.000000
101325.000000
101325.000000
101325.000000
101325.000000
101325.000000
101325.000000
101325.000000
101325.000000
101325.000000
101325.000000
101325.000000
101325.000000
101325.000000
101325.000000
101325.000000
101325.000000
101325.000000
101325.000000
101325.000000
101325.000000
101325.000000
101325.000000
101325.000000
101325.000000
101325.000000
101325.000000
101325.000000
101325.000000
101325.000000
101325.000000
101323.597568
101324.673226
101323.996263
101324.340212
101324.977883
101324.164094
101324.513554
101323.641454
101325.000000
101323.847267
101323.726467
101323.597568
101324.809196
101324.164094
101324.340212
101324.513554
101324.340212
101324.164094
101323.996263
101323.847267
101324.164094
101323.726467
101324.912921
101323.726467
101323.996263
101323.641454
101323.597568
101325.000000
101324.673226
101324.673226
101323.641454
101324.912921
101324.912921
101324.977883
101323.847267
101323.597568
101324.977883
101324.809196
101324.809196
101323.847267
101323.641454
101324.513554
101324.977883
101324.912921
101323.726467
101324.340212
101324.809196
101324.673226
101324.513554
101323.996263
101321.981190
101324.296601
101322.839403
101323.579772
101324.952392
101323.200667
101323.952899
101322.075656
101325.000000
101322.518681
101322.258653
101321.981190
101324.589285
101323.579772
101323.952899
101323.200667
101323.579772
101323.200667
101322.839403
101322.518681
101323.200667
101322.258653
101324.812558
101322.258653
101322.839403
101322.075656
101321.981190
101325.000000
101324.296601
101324.296601
101322.075656
101324.812558
101324.812558
101324.952392
101322.518681
101321.981190
101324.589285
101324.952392
101324.589285
101322.518681
101322.075656
101323.952899
101324.952392
101322.258653
101324.812558
101323.579772
101324.589285
101324.296601
101323.952899
101322.839403
101320.077073
101323.852932
101321.476605
101322.683962
101324.922363
101322.065736
101323.292438
101320.231124
101325.000000
101320.953587
101320.529546
101320.077073
101324.330226
101322.683962
101323.292438
101322.065736
101321.476605
101322.683962
101322.065736
101320.953587
101322.065736
101320.529546
101324.694328
101320.529546
101321.476605
101320.077073
101320.231124
101325.000000
101323.852932
101323.852932
101324.694328
101320.231124
101324.694328
101324.922363
101320.953587
101320.077073
101324.330226
101324.922363
101324.330226
101320.953587
101320.231124
101323.292438
101324.922363
101320.529546
101324.694328
101324.330226
101322.683962
101323.852932
101323.292438
101321.476605
101317.832679
101323.329977
101319.870266
101321.628065
101324.886967
101320.727986
101322.513950
101318.056962
101325.000000
101319.108802
101318.491436
101317.832679
101324.024871
101321.628065
101322.513950
101320.727986
101319.870266
101321.628065
101320.727986
101319.108802
101320.727986
101318.491436
101319.870266
101324.554971
101318.491436
101317.832679
101318.056962
101325.000000
101323.329977
101323.329977
101324.554971
101318.056962
101324.554971
101324.886967
101319.108801
101317.832679
101324.024871
101324.886967
101324.024871
101319.108801
101318.056962
101322.513950
101324.024871
101324.886967
101318.491436
101324.554971
101321.628065
101323.329977
101322.513950
101319.870266
101315.189672
101322.714142
101317.978636
101320.384637
101324.845285
101319.152646
101321.597199
101315.496662
101325.000000
101316.936375
101316.091351
101315.189672
101320.384637
101321.597199
101323.665284
101319.152646
101317.978636
101320.384637
101319.152646
101316.936375
101316.091351
101319.152646
101317.978636
101324.390862
101316.091351
101315.189672
101315.496662
101325.000000
101322.714142
101324.390862
101322.714142
101315.496662
101324.390862
101324.845285
101316.936375
101315.189672
101323.665284
101323.665284
101324.845285
101316.936375
101315.496662
101321.597199
101323.665284
101324.845285
101316.091351
101324.390862
101320.384637
101322.714142
101321.597199
101317.978636
101312.083631
101321.990418
101315.755607
101318.923370
101324.796301
101317.301319
101320.519840
101312.487816
101325.000000
101314.383356
101313.270790
101312.083631
101318.923370
101320.519840
101317.301319
101323.242701
101315.755607
101318.923370
101317.301319
101314.383356
101313.270790
101317.301319
101315.755607
101313.270790
101324.198004
101312.083631
101312.487816
101321.990418
101325.000000
101324.198004
101321.990418
101312.487816
101324.796301
101314.383356
101324.198004
101312.083630
101323.242701
101323.242701
101324.796301
101314.383356
101312.487816
101323.242701
101320.519840
101313.270790
101324.796301
101324.198004
101318.923370
101321.990418
101320.519840
101315.755607
101794.594969
101794.594969
101794.594969
101794.594969
101794.594969
101794.594969
101794.594969
101794.594969
101794.594969
101794.594969
101794.594969
101794.594969
101794.594969
101794.594969
101794.594969
101794.594969
101325.000000
101325.000000
101325.000000
101325.000000
101325.000000
101325.000000
101325.000000
101325.000000
101325.000000
101325.000000
101325.000000
101325.000000
101325.000000
101325.000000
101325.000000
101325.000000
101325.000000
101325.000000
101325.000000
101325.000000
101325.000000
101325.000000
101325.000000
101325.000000
101325.000000
101325.000000
101325.000000
101325.000000
101325.000000
101325.000000
101325.000000
101325.000000
101325.000000
101325.000000
101323.597568
101324.673226
101323.641454
101324.513554
101324.513554
101323.726467
101324.340212
101323.726467
101323.996263
101323.847267
101323.996263
101324.164094
101324.673226
101323.597568
101324.977883
101323.726467
101324.340212
101324.809196
101324.912921
101323.847267
101324.164094
101323.641454
101324.164094
101323.996263
101324.912921
101324.673226
101325.000000
101323.847267
101324.912921
101323.641454
101323.847267
101324.809196
101324.809196
101325.000000
101324.977883
101324.340212
101323.597568
101323.597568
101324.164094
101324.977883
101324.673226
101324.809196
101324.513554
101324.977883
101323.726467
101323.641454
101323.996263
101324.912921
101324.340212
101324.513554
101308.443365
101321.142217
101317.210772
101313.150227
101324.738892
101315.131573
101319.257181
101308.961463
101325.000000
101311.391229
101309.965105
101308.443365
101317.210772
101319.257181
101315.131573
101322.747435
101313.150227
101311.391229
101317.210772
101315.131573
101309.965105
101315.131573
101313.150227
101309.965105
101323.971974
101308.443365
101308.961463
101321.142217
101325.000000
101323.971974
101321.142217
101308.961463
101311.391229
101324.738892
101323.971974
101308.443365
101322.747435
101322.747435
101324.738892
101311.391229
101322.747435
101308.961463
101319.257181
101309.965105
101324.738892
101323.971974
101317.210772
101321.142217
101319.257181
101313.150227
101321.981190
101324.296601
101322.075656
101323.952899
101323.952899
101323.579772
101322.258653
101322.258653
101322.839403
101322.518681
101322.839403
101323.200667
101324.296601
101321.981190
101324.952392
101322.258653
101323.579772
101324.589285
101324.812558
101322.518681
101323.200667
101322.075656
101323.200667
101322.839403
101324.812558
101324.296601
101322.518681
101325.000000
101324.812558
101322.075656
101322.518681
101324.589285
101324.589285
101324.952392
101325.000000
101323.579772
101321.981190
101321.981190
101323.200667
101324.952392
101324.296601
101324.589285
101323.952899
101324.952392
101322.258653
101322.075656
101322.839403
101324.812558
101323.579772
101323.952899
101320.077073
101323.852932
101320.231124
101323.292438
101323.292438
101322.683962
101320.529546
101320.529546
101321.476605
101320.953587
101321.476605
101322.065736
101323.852932
101324.922363
101320.077073
101320.529546
101322.683962
101324.694328
101324.330226
101320.953587
101322.065736
101320.231124
101322.065736
101321.476605
101324.694328
101323.852932
101320.953587
101325.000000
101324.694328
101320.231124
101320.953587
101324.330226
101324.330226
101324.922363
101325.000000
101322.683962
101320.077073
101320.077073
101322.065736
101324.922363
101323.852932
101324.330226
101323.292438
101324.922363
101320.529546
101320.231124
101321.476605
101324.694328
101322.683962
101323.292438
101304.187009
101320.150464
101315.208329
101310.103904
101324.671767
101312.594612
101317.780826
101304.838299
101325.000000
101307.892707
101306.099957
101304.187009
101317.780826
101315.208329
101312.594612
101322.168349
101310.103904
101307.892707
101315.208329
101312.594612
101306.099957
101310.103904
101312.594612
101306.099957
101323.707691
101304.187009
101320.150464
101304.838299
101325.000000
101323.707691
101320.150464
101304.838299
101307.892707
101324.671767
101323.707691
101304.187009
101322.168349
101322.168349
101324.671767
101307.892707
101322.168349
101304.838299
101317.780826
101306.099957
101324.671767
101320.150464
101323.707691
101315.208329
101310.103904
101317.780826
101317.832679
101323.329977
101318.056962
101322.513950
101322.513950
101321.628065
101318.491436
101318.491436
101319.870266
101319.870266
101319.108802
101320.727986
101323.329977
101324.886967
101317.832679
101318.491436
101321.628065
101324.554971
101324.024871
101319.108802
101320.727986
101318.056962
101320.727986
101319.870266
101324.554971
101323.329977
101319.108802
101325.000000
101324.554971
101318.056962
101319.108802
101324.024871
101324.024871
101324.886967
101325.000000
101321.628065
101317.832679
101317.832679
101320.727986
101324.886967
101323.329977
101324.024871
101322.513950
101324.886967
101318.491436
101318.056962
101319.870266
101324.554971
101321.628065
101322.513950
101315.189672
101322.714142
101321.597199
101315.496662
101321.597199
101320.384637
101316.091351
101316.091351
101317.978636
101317.978636
101316.936375
101319.152646
101322.714142
101324.845285
101316.091351
101315.189672
101320.384637
101324.390862
101316.936375
101323.665284
101319.152646
101315.496662
101317.978636
101319.152646
101324.390862
101322.714142
101316.936375
101325.000000
101315.496662
101324.390862
101316.936375
101323.665284
101323.665284
101324.845285
101325.000000
101320.384637
101315.189672
101315.189672
101319.152646
101324.845285
101322.714142
101323.665284
101321.597199
101316.091351
101315.496662
101324.845285
101317.978636
101324.390862
101320.384637
101321.597199
101299.219383
101318.992981
101312.871261
101306.548517
101324.593424
101309.633705
101316.057760
101300.026122
101325.000000
101303.809553
101301.588911
101299.219383
101316.057760
101312.871261
101309.633705
101306.548517
101321.492493
101303.809553
101312.871261
101309.633705
101301.588911
101306.548517
101309.633705
101301.588911
101323.399244
101299.219383
101318.992981
101300.026122
101325.000000
101323.399244
101300.026122
101318.992981
101303.809553
101324.593424
101323.399244
101299.219383
101321.492493
101321.492493
101321.492493
101303.809553
101324.593424
101300.026122
101301.588911
101316.057760
101324.593424
101318.992981
101323.399244
101312.871261
101306.548517
101316.057760
101312.083631
101321.990418
101320.519840
101312.487816
101320.519840
101318.923370
101313.270790
101313.270790
101315.755607
101315.755607
101314.383356
101317.301319
101321.990418
101324.796301
101313.270790
101312.083631
101318.923370
101324.198004
101314.383356
101323.242701
101317.301319
101315.755607
101312.487816
101317.301319
101324.198004
101321.990418
101314.383356
101325.000000
101312.487816
101324.198004
101314.383356
101323.242701
101323.242701
101324.796301
101325.000000
101318.923370
101312.083630
101312.083630
101317.301319
101323.242701
101321.990418
101324.796301
101320.519840
101313.270790
101312.487816
101315.755607
101324.796301
101324.198004
101318.923370
101320.519840
101308.443365
101321.142217
101319.257181
101319.257181
101317.210772
101308.961463
101309.965105
101309.965105
101313.150227
101313.150227
101311.391229
101315.131573
101321.142217
101324.738892
101309.965105
101308.443365
101317.210772
101323.971974
101311.391229
101322.747435
101315.131573
101313.150227
101308.961463
101323.971974
101321.142217
101315.131573
101311.391229
101308.961463
101325.000000
101311.391229
101323.971974
101322.747435
101322.747435
101324.738892
101325.000000
101308.443365
101317.210772
101308.443365
101315.131573
101322.747435
101321.142217
101324.738892
101319.257181
101309.965105
101308.961463
101313.150227
101324.738892
101323.971974
101317.210772
101319.257181
101293.457016
101317.650319
101310.160300
101302.424325
101324.502548
101306.199100
101314.059031
101294.444074
101325.000000
101299.073160
101296.356170
101293.457016
101314.059031
101310.160300
101306.199100
101302.424325
101299.073160
101320.708511
101296.356170
101310.160300
101306.199100
101302.424325
101296.356170
101306.199100
101323.041450
101317.650319
101293.457016
101294.444074
101325.000000
101323.041450
101294.444074
101317.650319
101299.073160
101324.502548
101323.041450
101293.457016
101320.708511
101320.708511
101320.708511
101299.073160
101324.502548
101294.444074
101296.356170
101314.059031
101317.650319
101324.502548
101323.041450
101310.160300
101302.424325
101314.059031
101304.187009
101320.150464
101317.780826
101317.780826
101315.208329
101306.099957
101304.838299
101306.099957
101310.103904
101310.103904
101312.594612
101307.892707
101320.150464
101306.099957
101324.671767
101304.187009
101315.208329
101323.707691
101307.892707
101322.168349
101312.594612
101310.103904
101304.838299
101320.150464
101323.707691
101312.594612
101307.892707
101304.838299
101307.892707
101325.000000
101323.707691
101322.168349
101322.168349
101324.671767
101325.000000
101304.187009
101304.187009
101315.208329
101322.168349
101312.594612
101320.150464
101324.671767
101317.780826
101306.099957
101304.838299
101310.103904
101323.707691
101324.671767
101315.208329
101317.780826
101286.805206
101316.100412
101307.030892
101297.663548
101324.397645
101302.234350
101311.751790
101288.000416
101325.000000
101290.315736
101293.605687
101286.805206
101311.751790
101307.030892
101302.234350
101297.663548
101293.605687
101319.803518
101290.315736
101297.663548
101307.030892
101302.234350
101290.315736
101322.628429
101316.100412
101302.234350
101286.805205
101288.000415
101322.628429
101325.000000
101288.000415
101316.100412
101293.605687
101324.397645
101286.805205
101322.628429
101319.803518
101319.803518
101319.803518
101293.605687
101288.000415
101324.397645
101290.315736
101311.751790
101316.100412
101324.397645
101322.628429
101307.030892
101297.663548
101311.751790
101299.219383
101318.992981
101316.057760
101316.057760
101312.871261
101301.588911
101300.026122
101301.588911
101306.548517
101306.548517
101309.633705
101303.809553
101318.992981
101301.588911
101324.593424
101312.871261
101323.399244
101299.219383
101303.809553
101321.492493
101309.633705
101306.548517
101318.992981
101300.026122
101323.399244
101303.809553
101309.633705
101303.809553
101300.026122
101325.000000
101323.399244
101321.492493
101321.492493
101324.593424
101325.000000
101299.219383
101299.219383
101312.871261
101321.492493
101309.633704
101318.992981
101324.593424
101301.588911
101316.057760
101300.026122
101306.548517
101323.399244
101324.593424
101312.871261
101316.057760
101293.457016
101317.650319
101314.059031
101296.356170
101310.160300
101314.059031
101294.444074
101296.356170
101302.424325
101302.424325
101306.199100
101317.650319
101299.073160
101296.356170
101324.502548
101310.160300
101323.041450
101293.457016
101299.073160
101306.199100
101302.424325
101320.708511
101317.650319
101294.444074
101323.041450
101299.073160
101299.073160
101306.199100
101294.444074
101325.000000
101323.041450
101320.708511
101320.708511
101324.502548
101293.457016
101293.457016
101325.000000
101320.708511
101310.160300
101306.199100
101317.650319
101324.502548
101296.356170
101302.424325
101294.444074
101314.059031
101323.041450
101324.502548
101310.160300
101314.059031
101279.163036
101314.319746
101303.435560
101292.193960
101297.679307
101324.277124
101309.101034
101280.597388
101325.000000
101283.375967
101287.324185
101309.101034
101279.163036
101303.435560
101297.679307
101287.324185
101292.193960
101318.763785
101283.375967
101292.193960
101283.375967
101303.435560
101314.319746
101297.679307
101322.153916
101279.163036
101297.679307
101280.597388
101322.153916
101325.000000
101280.597388
101314.319746
101287.324185
101324.277124
101279.163036
101322.153916
101318.763785
101318.763785
101318.763785
101287.324185
101280.597388
101283.375967
101324.277124
101314.319746
101309.101034
101324.277124
101322.153916
101292.193960
101303.435560
101309.101034
101286.805206
101316.100412
101311.751790
101290.315736
101307.030892
101311.751790
101288.000415
101290.315736
101297.663548
101297.663548
101302.234350
101316.100412
101290.315736
101293.605687
101324.397645
101322.628429
101307.030892
101293.605687
101286.805205
101297.663548
101302.234350
101316.100412
101319.803518
101293.605687
101322.628429
101293.605687
101288.000415
101302.234350
101288.000415
101319.803518
101319.803518
101325.000000
101322.628429
101324.397645
101286.805205
101286.805205
101319.803518
101325.000000
101307.030892
101316.100412
101302.234350
101324.397645
101290.315736
101297.663548
101288.000415
101311.751790
101322.628429
101324.397645
101307.030892
101311.751790
101270.409509
101312.280128
101299.317379
101285.928961
101292.461849
101324.139075
101306.064794
101272.117781
101325.000000
101306.064794
101299.317379
101275.426988
101280.129200
101270.409509
101280.129200
101292.461849
101285.928960
101275.426988
101285.928960
101317.572849
101312.280128
101275.426988
101321.610396
101299.317379
101292.461849
101270.409508
101292.461849
101321.610396
101272.117781
101325.000000
101272.117780
101312.280128
101280.129200
101324.139075
101317.572849
101270.409508
101317.572849
101321.610396
101280.129200
101317.572849
101272.117780
101275.426987
101324.139075
101312.280128
101306.064794
101324.139075
101285.928960
101321.610396
101299.317379
101306.064794
101279.163036
101314.319746
101309.101034
101283.375967
101303.435560
101309.101034
101280.597388
101292.193960
101283.375967
101297.679307
101292.193960
101314.319746
101283.375967
101322.153916
101324.277124
101303.435560
101287.324185
101287.324185
101279.163036
101292.193960
101297.679307
101287.324185
101314.319746
101287.324185
101322.153916
101318.763785
101280.597388
101280.597388
101297.679307
101318.763785
101318.763785
101322.153916
101325.000000
101324.277124
101318.763785
101279.163036
101279.163036
101325.000000
101314.319746
101303.435560
101297.679307
101283.375967
101324.277124
101292.193960
101280.597388
101309.101034
101322.153916
101324.277124
101303.435560
101309.101034
101260.496712
101309.970394
101294.653809
101278.834258
101286.553419
101323.982745
101302.626451
101262.515180
101325.000000
101302.626451
101294.653809
101271.981350
101286.553419
101278.834258
101266.425288
101260.496711
101271.981350
101266.425288
101278.834258
101309.970394
101266.425288
101316.224193
101320.994896
101260.496711
101294.653809
101286.553419
101286.553419
101320.994896
101262.515179
101325.000000
101262.515179
101309.970394
101271.981350
101316.224193
101323.982745
101260.496711
101271.981350
101316.224193
101320.994896
101316.224193
101266.425288
101262.515179
101309.970394
101323.982745
101302.626451
101278.834258
101323.982745
101320.994896
101294.653809
101302.626451
101270.409509
101306.064794
101312.280128
101275.426988
101299.317379
101306.064794
101272.117781
101285.928960
101292.461849
101275.426988
101312.280128
101285.928960
101275.426988
101321.610396
101299.317379
101324.139075
101280.129200
101280.129200
101270.409508
101280.129200
101285.928960
101292.461849
101312.280128
101280.129200