# vtk DataFile Version 3.0
Time Step 100, Physical Time = 0.001000s, Residual = 3.68e-03
ASCII
DATASET UNSTRUCTURED_GRID
POINTS 5000 float
0.318712 0.385257 0.000000
-0.318712 0.385257 0.000000
-0.318712 -0.385257 0.000000
0.318712 -0.385257 0.000000
0.093691 0.491144 0.000000
-0.093691 0.491144 0.000000
-0.093691 -0.491144 0.000000
0.093691 -0.491144 0.000000
0.404508 0.293893 0.000000
-0.404508 0.293893 0.000000
-0.404508 -0.293893 0.000000
0.404508 -0.293893 0.000000
0.438153 0.240877 0.000000
-0.438153 0.240877 0.000000
-0.438153 -0.240877 0.000000
0.438153 -0.240877 0.000000
0.500000 0.000000 0.000000
-0.500000 -0.000000 0.000000
0.364484 0.342274 0.000000
-0.364484 0.342274 0.000000
-0.364484 -0.342274 0.000000
0.364484 -0.342274 0.000000
0.496057 0.062667 0.000000
-0.496057 0.062667 0.000000
-0.496057 -0.062667 0.000000
0.496057 -0.062667 0.000000
0.212890 0.452414 0.000000
-0.212890 0.452414 0.000000
-0.212890 -0.452414 0.000000
0.212890 -0.452414 0.000000
0.154508 0.475528 0.000000
-0.154508 0.475528 0.000000
-0.154508 -0.475528 0.000000
0.154508 -0.475528 0.000000
0.267913 0.422164 0.000000
-0.267913 0.422164 0.000000
-0.267913 -0.422164 0.000000
0.267913 -0.422164 0.000000
0.031395 0.499013 0.000000
-0.031395 0.499013 0.000000
-0.031395 -0.499013 0.000000
0.031395 -0.499013 0.000000
0.464888 0.184062 0.000000
-0.464888 0.184062 0.000000
-0.464888 -0.184062 0.000000
0.464888 -0.184062 0.000000
0.484292 0.124345 0.000000
-0.484292 0.124345 0.000000
-0.484292 -0.124345 0.000000
0.484292 -0.124345 0.000000
-0.031454 0.499951 0.000000
0.438977 0.241329 0.000000
-0.268417 0.422957 0.000000
0.365169 0.342917 0.000000
-0.496990 -0.062784 0.000000
0.319311 -0.385981 0.000000
0.405269 0.294445 0.000000
-0.093867 0.492067 0.000000
0.500940 -0.000000 0.000000
-0.213290 0.453264 0.000000
-0.154799 0.476422 0.000000
0.031454 0.499951 0.000000
0.465762 0.184408 0.000000
0.319311 0.385981 0.000000
0.365169 -0.342917 0.000000
0.405269 -0.294445 0.000000
-0.365169 0.342917 0.000000
-0.319311 0.385981 0.000000
0.268417 0.422957 0.000000
0.213290 0.453264 0.000000
-0.319311 -0.385981 0.000000
0.154799 -0.476422 0.000000
-0.485202 -0.124579 0.000000
0.154799 0.476422 0.000000
0.268417 -0.422957 0.000000
0.093867 0.492067 0.000000
-0.031454 -0.499951 0.000000
-0.500940 0.000000 0.000000
0.438977 -0.241329 0.000000
-0.438977 -0.241329 0.000000
0.093867 -0.492067 0.000000
-0.485202 0.124579 0.000000
0.485202 0.124579 0.000000
-0.496990 0.062784 0.000000
0.213290 -0.453264 0.000000
0.031454 -0.499951 0.000000
0.496990 -0.062784 0.000000
0.465762 -0.184408 0.000000
-0.465762 -0.184408 0.000000
-0.213290 -0.453264 0.000000
-0.093867 -0.492067 0.000000
-0.405269 -0.294445 0.000000
0.496990 0.062784 0.000000
0.485202 -0.124579 0.000000
-0.154799 -0.476422 0.000000
-0.365169 -0.342917 0.000000
-0.465762 0.184408 0.000000
-0.438977 0.241329 0.000000
-0.405269 0.294445 0.000000
-0.268417 -0.422957 0.000000
-0.031523 0.501039 0.000000
0.439932 0.241854 0.000000
-0.269001 0.423877 0.000000
0.365964 0.343663 0.000000
-0.498071 -0.062921 0.000000
0.320005 -0.386820 0.000000
0.406150 0.295085 0.000000
-0.094071 0.493137 0.000000
0.502029 -0.000000 0.000000
-0.213754 0.454250 0.000000
-0.155136 0.477458 0.000000
0.031523 0.501039 0.000000
0.466775 0.184809 0.000000
0.365964 -0.343663 0.000000
0.406150 -0.295085 0.000000
0.320005 0.386820 0.000000
-0.365964 0.343663 0.000000
-0.320005 0.386820 0.000000
0.269001 0.423877 0.000000
0.213754 0.454250 0.000000
-0.320005 -0.386820 0.000000
0.155136 -0.477458 0.000000
-0.486257 -0.124850 0.000000
0.155136 0.477458 0.000000
0.269001 -0.423877 0.000000
0.094071 0.493137 0.000000
-0.031523 -0.501039 0.000000
-0.502029 0.000000 0.000000
0.439932 -0.241854 0.000000
-0.439932 -0.241854 0.000000
0.094071 -0.493137 0.000000
-0.486257 0.124850 0.000000
0.486257 0.124850 0.000000
-0.498071 0.062921 0.000000
0.213754 -0.454250 0.000000
0.031523 -0.501039 0.000000
0.466775 -0.184809 0.000000
0.498071 -0.062921 0.000000
-0.466775 -0.184809 0.000000
-0.213754 -0.454250 0.000000
-0.094071 -0.493137 0.000000
-0.406150 -0.295085 0.000000
0.498071 0.062921 0.000000
-0.155136 -0.477458 0.000000
0.486257 -0.124850 0.000000
-0.365964 -0.343663 0.000000
-0.466775 0.184809 0.000000
-0.439932 0.241854 0.000000
-0.406150 0.295085 0.000000
-0.269001 -0.423877 0.000000
-0.031604 0.502329 0.000000
0.441064 0.242477 0.000000
-0.269693 0.424969 0.000000
0.366906 0.344547 0.000000
-0.499353 -0.063083 0.000000
0.320829 -0.387816 0.000000
0.407196 0.295845 0.000000
-0.094313 0.494407 0.000000
0.503322 -0.000000 0.000000
-0.214304 0.455419 0.000000
-0.155535 0.478688 0.000000
0.031604 0.502329 0.000000
0.467977 0.185285 0.000000
0.366906 -0.344547 0.000000
0.407196 -0.295845 0.000000
0.320829 0.387816 0.000000
0.269693 0.424969 0.000000
-0.366906 0.344547 0.000000
-0.320829 0.387816 0.000000
0.214304 0.455419 0.000000
-0.320829 -0.387816 0.000000
0.155535 -0.478688 0.000000
-0.487509 -0.125171 0.000000
0.155535 0.478688 0.000000
0.269693 -0.424969 0.000000
-0.031604 -0.502329 0.000000
0.094313 0.494407 0.000000
-0.503322 0.000000 0.000000
0.441064 -0.242477 0.000000
-0.441064 -0.242477 0.000000
-0.487509 0.125171 0.000000
0.094313 -0.494407 0.000000
0.487509 0.125171 0.000000
-0.499353 0.063083 0.000000
0.214304 -0.455419 0.000000
0.031604 -0.502329 0.000000
0.467977 -0.185285 0.000000
0.499353 -0.063083 0.000000
-0.467977 -0.185285 0.000000
-0.214304 -0.455419 0.000000
-0.094313 -0.494407 0.000000
-0.407196 -0.295845 0.000000
0.499353 0.063083 0.000000
-0.155535 -0.478688 0.000000
0.487509 -0.125171 0.000000
-0.467977 0.185285 0.000000
-0.366906 -0.344547 0.000000
-0.441064 0.242477 0.000000
-0.407196 0.295845 0.000000
-0.269693 -0.424969 0.000000
-0.031700 0.503862 0.000000
0.442411 0.243217 0.000000
-0.270517 0.426266 0.000000
0.368026 0.345599 0.000000
-0.500877 -0.063276 0.000000
0.321809 -0.389000 0.000000
0.408439 0.296748 0.000000
-0.094601 0.495916 0.000000
0.504858 -0.000000 0.000000
-0.214958 0.456810 0.000000
-0.156010 0.480149 0.000000
0.031700 0.503862 0.000000
0.469405 0.185851 0.000000
0.368026 -0.345599 0.000000
0.408439 -0.296748 0.000000
0.321809 0.389000 0.000000
0.270517 0.426266 0.000000
-0.368026 0.345599 0.000000
-0.321809 0.389000 0.000000
0.214958 0.456810 0.000000
-0.321809 -0.389000 0.000000
0.156010 -0.480149 0.000000
0.270517 -0.426266 0.000000
-0.488997 -0.125553 0.000000
0.156010 0.480149 0.000000
-0.031700 -0.503862 0.000000
0.094601 0.495916 0.000000
-0.504858 0.000000 0.000000
0.442411 -0.243217 0.000000
-0.442411 -0.243217 0.000000
-0.488997 0.125553 0.000000
0.094601 -0.495916 0.000000
0.488997 0.125553 0.000000
-0.500877 0.063276 0.000000
0.214958 -0.456810 0.000000
0.031700 -0.503862 0.000000
0.469405 -0.185851 0.000000
0.500877 -0.063276 0.000000
-0.469405 -0.185851 0.000000
-0.214958 -0.456810 0.000000
-0.094601 -0.495916 0.000000
-0.408439 -0.296748 0.000000
-0.469405 0.185851 0.000000
0.500877 0.063276 0.000000
-0.156010 -0.480149 0.000000
0.488997 -0.125553 0.000000
-0.368026 -0.345599 0.000000
-0.442411 0.243217 0.000000
-0.408439 0.296748 0.000000
-0.270517 -0.426266 0.000000
-0.031815 0.505686 0.000000
0.444012 0.244098 0.000000
-0.271496 0.427809 0.000000
0.369358 0.346850 0.000000
-0.502691 -0.063505 0.000000
0.322974 -0.390408 0.000000
0.409918 0.297823 0.000000
-0.094943 0.497711 0.000000
0.506686 -0.000000 0.000000
-0.215736 0.458463 0.000000
-0.156575 0.481887 0.000000
0.031815 0.505686 0.000000
0.369358 -0.346850 0.000000
0.409918 -0.297823 0.000000
0.471105 0.186524 0.000000
0.322974 0.390408 0.000000
0.271496 0.427809 0.000000
-0.369358 0.346850 0.000000
-0.322974 0.390408 0.000000
0.215736 0.458463 0.000000
0.156575 -0.481887 0.000000
-0.322974 -0.390408 0.000000
0.271496 -0.427809 0.000000
-0.490768 -0.126008 0.000000
0.156575 0.481887 0.000000
-0.031815 -0.505686 0.000000
0.094943 0.497711 0.000000
-0.506686 0.000000 0.000000
0.444012 -0.244098 0.000000
-0.490768 0.126008 0.000000
-0.444012 -0.244098 0.000000
0.094943 -0.497711 0.000000
0.490768 0.126008 0.000000
-0.502691 0.063505 0.000000
0.215736 -0.458463 0.000000
0.031815 -0.505686 0.000000
0.471105 -0.186524 0.000000
-0.471105 -0.186524 0.000000
0.502691 -0.063505 0.000000
-0.215736 -0.458463 0.000000
-0.094943 -0.497711 0.000000
-0.409918 -0.297823 0.000000
-0.471105 0.186524 0.000000
0.502691 0.063505 0.000000
-0.156575 -0.481887 0.000000
0.490768 -0.126008 0.000000
-0.369358 -0.346850 0.000000
-0.444012 0.244098 0.000000
-0.409918 0.297823 0.000000
-0.271496 -0.427809 0.000000
-0.031952 0.507855 0.000000
0.445917 0.245145 0.000000
-0.272661 0.429644 0.000000
0.370943 0.348338 0.000000
-0.504847 -0.063777 0.000000
0.324359 -0.392083 0.000000
0.411676 0.299100 0.000000
-0.095351 0.499846 0.000000
0.508859 -0.000000 0.000000
-0.216662 0.460430 0.000000
-0.157246 0.483954 0.000000
0.031952 0.507855 0.000000
0.370943 -0.348338 0.000000
0.411676 -0.299100 0.000000
0.324359 0.392083 0.000000
0.473126 0.187324 0.000000
0.272661 0.429644 0.000000
-0.370943 0.348338 0.000000
-0.324359 0.392083 0.000000
0.216662 0.460430 0.000000
0.157246 -0.483954 0.000000
-0.324359 -0.392083 0.000000
0.272661 -0.429644 0.000000
0.157246 0.483954 0.000000
-0.492873 -0.126548 0.000000
-0.031952 -0.507855 0.000000
0.095351 0.499846 0.000000
0.445917 -0.245145 0.000000
-0.508859 0.000000 0.000000
-0.492873 0.126548 0.000000
-0.445917 -0.245145 0.000000
0.095351 -0.499846 0.000000
-0.504847 0.063777 0.000000
0.216662 -0.460430 0.000000
0.492873 0.126548 0.000000
0.031952 -0.507855 0.000000
0.473126 -0.187324 0.000000
-0.473126 -0.187324 0.000000
0.504847 -0.063777 0.000000
-0.216662 -0.460430 0.000000
-0.095351 -0.499846 0.000000
-0.473126 0.187324 0.000000
-0.411676 -0.299100 0.000000
-0.157246 -0.483954 0.000000
0.504847 0.063777 0.000000
0.492873 -0.126548 0.000000
-0.370943 -0.348338 0.000000
-0.445917 0.245145 0.000000
-0.411676 0.299100 0.000000
-0.272661 -0.429644 0.000000
0.318712 0.385257 0.100000
-0.318712 0.385257 0.100000
[...]
POINT_DATA 5000
SCALARS pressure float 1
LOOKUP_TABLE default
101757.332358
101757.332358
101757.332358
101757.332358
101757.332358
101757.332358
101757.332358
101757.332358
101757.332358
101757.332358
101757.332358
101757.332358
101757.332358
101757.332358
101757.332358
101757.332358
101325.000000
101325.000000
101325.000000
101325.000000
101325.000000
101325.000000
101325.000000
101325.000000
101325.000000
101325.000000
101325.000000
101325.000000
101325.000000
101325.000000
101325.000000
101325.000000
101325.000000
101325.000000
101325.000000
101325.000000
101325.000000
101325.000000
101325.000000
101325.000000
101325.000000
101325.000000
101325.000000
101325.000000
101325.000000
101325.000000
101325.000000
101325.000000
101325.000000
101325.000000
101323.708852
101324.699156
101324.075910
101324.392567
101324.979638
101324.230423
101324.552154
101323.749255
101325.000000
101323.938737
101323.827523
101323.708852
101324.824337
101324.230423
101324.392567
101324.552154
101324.392567
101324.230423
101324.075910
101323.938737
101324.230423
101323.827523
101324.919831
101323.827523
101324.075910
101323.749255
101323.708852
101325.000000
101324.699156
101324.699156
101323.749255
101324.919831
101324.919831
101324.979638
101323.938737
101323.708852
101324.979638
101324.824337
101324.824337
101323.938737
101323.749255
101324.552154
101324.979638
101324.919831
101323.827523
101324.392567
101324.824337
101324.699156
101324.552154
101324.075910
101322.220735
101324.352417
101323.010848
101323.692468
101324.956169
101323.343445
101324.035987
101322.307705
101325.000000
101322.715575
101322.476180
101322.220734
101324.621875
101323.692468
101324.035987
101323.343445
101323.692468
101323.343445
101323.010848
101322.715575
101323.343445
101322.476180
101324.827431
101322.476180
101323.010848
101322.307705
101322.220734
101325.000000
101324.352417
101324.352417
101322.307705
101324.827431
101324.827431
101324.956169
101322.715575
101322.220734
101324.621875
101324.956169
101324.621875
101322.715575
101322.307705
101324.035987
101324.956169
101322.476180
101324.827431
101323.692468
101324.621875
101324.352417
101324.035987
101323.010848
101320.467710
101323.943953
101321.756188
101322.867741
101324.928523
101322.298571
101323.427934
101320.609537
101325.000000
101321.274672
101320.884278
101320.467710
101324.383372
101322.867741
101323.427934
101322.298571
101321.756188
101322.867741
101322.298571
101321.274672
101322.298571
101320.884278
101324.718583
101320.884278
101321.756188
101320.467710
101320.609537
101325.000000
101323.943953
101323.943953
101324.718583
101320.609537
101324.718583
101324.928523
101321.274672
101320.467710
101324.383372
101324.928523
101324.383372
101321.274672
101320.609537
101323.427934
101324.928523
101320.884278
101324.718583
101324.383372
101322.867741
101323.943953
101323.427934
101321.756188
101318.401410
101323.462494
101320.277314
101321.895630
101324.895936
101321.066972
101322.711219
101318.607896
101325.000000
101319.576271
101319.007894
101318.401410
101324.102248
101321.895630
101322.711219
101321.066972
101320.277314
101321.895630
101321.066972
101319.576271
101321.066972
101319.007894
101320.277314
101324.590284
101319.007894
101318.401410
101318.607896
101325.000000
101323.462494
101323.462494
101324.590284
101318.607896
101324.590284
101324.895936
101319.576271
101318.401410
101324.102248
101324.895936
101324.102248
101319.576271
101318.607896
101322.711219
101324.102248
101324.895936
101319.007894
101324.590284
101321.895630
101323.462494
101322.711219
101320.277313
101315.968127
101322.895526
101318.535785
101320.750869
101324.857562
101319.616637
101321.867213
101316.250757
101325.000000
101317.576228
101316.798257
101315.968127
101320.750869
101321.867213
101323.771195
101319.616637
101318.535785
101320.750869
101319.616637
101317.576228
101316.798257
101319.616637
101318.535785
101324.439198
101316.798257
101315.968127
101316.250757
101325.000000
101322.895526
101324.439198
101322.895526
101316.250757
101324.439198
101324.857562
101317.576228
101315.968127
101323.771195
101323.771195
101324.857562
101317.576228
101316.250757
101321.867213
101323.771195
101324.857562
101316.798257
101324.439198
101320.750869
101322.895526
101321.867213
101318.535785
101313.108551
101322.229230
101316.489154
101319.405554
101324.812465
101317.912213
101320.875343
101313.480664
101325.000000
101315.225792
101314.201509
101313.108551
101319.405554
101320.875343
101317.912213
101323.382144
101316.489154
101319.405554
101317.912213
101315.225792
101314.201509
101317.912213
101316.489154
101314.201509
101324.261643
101313.108551
101313.480664
101322.229230
101325.000000
101324.261643
101322.229230
101313.480664
101324.812465
101315.225792
101324.261643
101313.108551
101323.382144
101323.382144
101324.812465
101315.225792
101313.480664
101323.382144
101320.875343
101314.201509
101324.812465
101324.261643
101319.405554
101322.229230
101320.875343
101316.489154
101757.332358
101757.332358
101757.332358
101757.332358
101757.332358
101757.332358
101757.332358
101757.332358
101757.332358
101757.332358
101757.332358
101757.332358
101757.332358
101757.332358
101757.332358
101757.332358
101325.000000
101325.000000
101325.000000
101325.000000
101325.000000
101325.000000
101325.000000
101325.000000
101325.000000
101325.000000
101325.000000
101325.000000
101325.000000
101325.000000
101325.000000
101325.000000
101325.000000
101325.000000
101325.000000
101325.000000
101325.000000
101325.000000
101325.000000
101325.000000
101325.000000
101325.000000
101325.000000
101325.000000
101325.000000
101325.000000
101325.000000
101325.000000
101325.000000
101325.000000
101323.708852
101324.699156
101323.749255
101324.552154
101324.552154
101323.827523
101324.392567
101323.827523
101324.075910
101323.938737
101324.075910
101324.230423
101324.699156
101323.708852
101324.979638
101323.827523
101324.392567
101324.824337
101324.919831
101323.938737
101324.230423
101323.749255
101324.230423
101324.075910
101324.919831
101324.699156
101325.000000
101323.938737
101324.919831
101323.749255
101323.938737
101324.824337
101324.824337
101325.000000
101324.979638
101324.392567
101323.708852
101323.708852
101324.230423
101324.979638
101324.699156
101324.824337
101324.552154
101324.979638
101323.827523
101323.749255
101324.075910
101324.919831
101324.392567
101324.552154
101309.757143
101321.448334
101317.828851
101314.090512
101324.759611
101315.914638
101319.712877
101310.234129
101325.000000
101312.471093
101311.158132
101309.757143
101317.828851
101319.712877
101315.914638
101322.926177
101314.090512
101312.471093
101317.828851
101315.914638
101311.158132
101315.914638
101314.090512
101311.158132
101324.053549
101309.757143
101310.234129
101321.448334
101325.000000
101324.053549
101321.448334
101310.234129
101312.471093
101324.759611
101324.053549
101309.757142
101322.926177
101322.926177
101324.759611
101312.471093
101322.926177
101310.234129
101319.712877
101311.158132
101324.759611
101324.053549
101317.828851
101321.448334
101319.712877
101314.090512
101322.220734
101324.352417
101322.307705
101324.035987
101324.035987
101323.692468
101322.476180
101322.476180
101323.010848
101322.715575
101323.010848
101323.343445
101324.352417
101322.220734
101324.956169
101322.476180
101323.692468
101324.621875
101324.827431
101322.715575
101323.343445
101322.307705
101323.343445
101323.010848
101324.827431
101324.352417
101322.715575
101325.000000
101324.827431
101322.307705
101322.715575
101324.621875
101324.621875
101324.956169
101325.000000
101323.692468
101322.220734
101322.220734
101323.343445
101324.956169
101324.352417
101324.621875
101324.035987
101324.956169
101322.476180
101322.307705
101323.010848
101324.827431
101323.692468
101324.035987
101320.467710
101323.943953
101320.609537
101323.427934
101323.427934
101322.867741
101320.884278
101320.884278
101321.756188
101321.274672
101321.756188
101322.298571
101323.943953
101324.928523
101320.467710
101320.884278
101322.867741
101324.718583
101324.383372
101321.274672
101322.298571
101320.609537
101322.298571
101321.756188
101324.718583
101323.943953
101321.274672
101325.000000
101324.718583
101320.609537
101321.274672
101324.383372
101324.383372
101324.928523
101325.000000
101322.867741
101320.467710
101320.467710
101322.298571
101324.928523
101323.943953
101324.383372
101323.427934
101324.928523
101320.884278
101320.609537
101321.756188
101324.718583
101322.867741
101323.427934
101305.838531
101320.535277
101315.985303
101311.285917
101324.697812
101313.578986
101318.353671
101306.438141
101325.000000
101309.250180
101307.599685
101305.838531
101318.353671
101315.985303
101313.578986
101322.393042
101311.285917
101309.250180
101315.985303
101313.578986
101307.599685
101311.285917
101313.578986
101307.599685
101323.810236
101305.838531
101320.535277
101306.438141
101325.000000
101323.810236
101320.535277
101306.438141
101309.250180
101324.697812
101323.810236
101305.838531
101322.393042
101322.393042
101324.697812
101309.250180
101322.393042
101306.438141
101318.353671
101307.599685
101324.697812
101320.535277
101323.810236
101315.985303
101311.285917
101318.353671
101318.401410
101323.462494
101318.607896
101322.711219
101322.711219
101321.895630
101319.007894
101319.007894
101320.277314
101320.277314
101319.576271
101321.066972
101323.462494
101324.895936
101318.401410
101319.007894
101321.895630
101324.590284
101324.102248
101319.576271
101321.066972
101318.607896
101321.066972
101320.277314
101324.590284
101323.462494
101319.576271
101325.000000
101324.590284
101318.607896
101319.576271
101324.102248
101324.102248
101324.895936
101325.000000
101321.895630
101318.401410
101318.401410
101321.066972
101324.895936
101323.462494
101324.102248
101322.711219
101324.895936
101319.007894
101318.607896
101320.277314
101324.590284
101321.895630
101322.711219
101315.968127
101322.895526
101321.867213
101316.250757
101321.867213
101320.750869
101316.798257
101316.798257
101318.535785
101318.535785
101317.576228
101319.616637
101322.895526
101324.857562
101316.798257
101315.968127
101320.750869
101324.439198
101317.576228
101323.771195
101319.616637
101316.250757
101318.535785
101319.616637
101324.439198
101322.895526
101317.576228
101325.000000
101316.250757
101324.439198
101317.576228
101323.771195
101323.771195
101324.857562
101325.000000
101320.750869
101315.968127
101315.968127
101319.616637
101324.857562
101322.895526
101323.771195
101321.867213
101316.798257
101316.250757
101324.857562
101318.535785
101324.439198
101320.750869
101321.867213
101301.265089
101319.469641
101313.833683
101308.012652
101324.625686
101310.853028
101316.767331
101302.007813
101325.000000
101305.491026
101303.446593
101301.265089
101316.767331
101313.833683
101310.853028
101308.012652
101321.770816
101305.491026
101313.833683
101310.853028
101303.446593
101308.012652
101310.853028
101303.446593
101323.526265
101301.265088
101319.469641
101302.007813
101325.000000
101323.526265
101302.007813
101319.469641
101305.491026
101324.625686
101323.526265
101301.265088
101321.770816
101321.770816
101321.770816
101305.491026
101324.625686
101302.007813
101303.446593
101316.767331
101324.625686
101319.469641
101323.526265
101313.833683
101308.012652
101316.767331
101313.108551
101322.229230
101320.875343
101313.480664
101320.875343
101319.405554
101314.201509
101314.201509
101316.489154
101316.489154
101315.225792
101317.912213
101322.229230
101324.812465
101314.201509
101313.108551
101319.405554
101324.261643
101315.225792
101323.382144
101317.912213
101316.489154
101313.480664
101317.912213
101324.261643
101322.229230
101315.225792
101325.000000
101313.480664
101324.261643
101315.225792
101323.382144
101323.382144
101324.812465
101325.000000
101319.405554
101313.108551
101313.108551
101317.912213
101323.382144
101322.229230
101324.812465
101320.875343
101314.201509
101313.480664
101316.489154
101324.812465
101324.261643
101319.405554
101320.875343
101309.757143
101321.448334
101319.712877
101319.712877
101317.828851
101310.234129
101311.158132
101311.158132
101314.090512
101314.090512
101312.471093
101315.914638
101321.448334
101324.759611
101311.158132
101309.757143
101317.828851
101324.053549
101312.471093
101322.926177
101315.914638
101314.090512
101310.234129
101324.053549
101321.448334
101315.914638
101312.471093
101310.234129
101325.000000
101312.471093
101324.053549
101322.926177
101322.926177
101324.759611
101325.000000
101309.757142
101317.828851
101309.757142
101315.914638
101322.926177
101321.448334
101324.759611
101319.712877
101311.158132
101310.234129
101314.090512
101324.759611
101324.053549
101317.828851
101319.712877
101295.959968
101318.233520
101311.337838
101304.215717
101324.542021
101307.690961
101314.927202
101296.868703
101325.000000
101301.130469
101298.629073
101295.959968
101314.927202
101311.337838
101307.690961
101304.215717
101301.130469
101321.049043
101298.629073
101311.337838
101307.690961
101304.215717
101298.629073
101307.690961
101323.196862
101318.233520
101295.959968
101296.868703
101325.000000
101323.196862
101296.868703
101318.233520
101301.130469
101324.542021
101323.196862
101295.959968
101321.049043
101321.049043
101321.049043
101301.130469
101324.542021
101296.868703
101298.629073
101314.927202
101318.233520
101324.542021
101323.196862
101311.337838
101304.215717
101314.927202
101305.838531
101320.535277
101318.353671
101318.353671
101315.985303
101307.599685
101306.438141
101307.599685
101311.285917
101311.285917
101313.578986
101309.250180
101320.535277
101307.599685
101324.697812
101305.838531
101315.985303
101323.810236
101309.250180
101322.393042
101313.578986
101311.285917
101306.438141
101320.535277
101323.810236
101313.578986
101309.250180
101306.438141
101309.250180
101325.000000
101323.810236
101322.393042
101322.393042
101324.697812
101325.000000
101305.838531
101305.838531
101315.985303
101322.393042
101313.578986
101320.535277
101324.697812
101318.353671
101307.599685
101306.438141
101311.285917
101323.810236
101324.697812
101315.985303
101318.353671
101289.835983
101316.806599
101308.456751
101299.832710
101324.445442
101304.040817
101312.803043
101290.936352
101325.000000
101293.067951
101296.096842
101289.835983
101312.803043
101308.456751
101304.040817
101299.832710
101296.096842
101320.215862
101293.067951
101299.832710
101308.456751
101304.040817
101293.067951
101322.816615
101316.806599
101304.040817
101289.835983
101290.936352
101322.816615
101325.000000
101290.936352
101316.806599
101296.096842
101324.445442
101289.835983
101322.816615
101320.215862
101320.215862
101320.215862
101296.096842
101290.936352
101324.445442
101293.067951
101312.803042
101316.806599
101324.445442
101322.816615
101308.456751
101299.832710
101312.803042
101301.265089
101319.469641
101316.767331
101316.767331
101313.833683
101303.446593
101302.007813
101303.446593
101308.012652
101308.012652
101310.853028
101305.491026
101319.469641
101303.446593
101324.625686
101313.833683
101323.526265
101301.265088
101305.491026
101321.770816
101310.853028
101308.012652
101319.469641
101302.007813
101323.526265
101305.491026
101310.853028
101305.491026
101302.007813
101325.000000
101323.526265
101321.770816
101321.770816
101324.625686
101325.000000
101301.265088
101301.265088
101313.833683
101321.770816
101310.853028
101319.469641
101324.625686
101303.446593
101316.767331
101302.007813
101308.012652
101323.526265
101324.625686
101313.833683
101316.767331
101295.959968
101318.233520
101314.927202
101298.629073
101311.337838
101314.927202
101296.868703
101298.629073
101304.215717
101304.215717
101307.690961
101318.233520
101301.130469
101298.629073
101324.542021
101311.337838
101323.196862
101295.959968
101301.130469
101307.690961
101304.215717
101321.049043
101318.233520
101296.868703
101323.196862
101301.130469
101301.130469
101307.690961
101296.868703
101325.000000
101323.196862
101321.049043
101321.049043
101324.542021
101295.959968
101295.959968
101325.000000
101321.049043
101311.337838
101307.690961
101318.233520
101324.542021
101298.629073
101304.215717
101296.868703
101314.927202
101323.196862
101324.542021
101311.337838
101314.927202
101282.800223
101315.167230
101305.146710
101294.797137
101299.847218
101324.334484
101310.362626
101284.120759
101325.000000
101286.678856
101290.313781
101310.362626
101282.800223
101305.146710
101299.847218
101290.313781
101294.797137
101319.258632
101286.678856
101294.797137
101286.678856
101305.146710
101315.167230
101299.847218
101322.379754
101282.800223
101299.847218
101284.120759
101322.379754
101325.000000
101284.120759
101315.167230
101290.313781
101324.334484
101282.800223
101322.379754
101319.258632
101319.258632
101319.258632
101290.313781
101284.120759
101286.678856
101324.334484
101315.167230
101310.362626
101324.334484
101322.379754
101294.797137
101305.146710
101310.362626
101289.835983
101316.806599
101312.803043
101293.067951
101308.456751
101312.803043
101290.936352
101293.067951
101299.832710
101299.832710
101304.040817
101316.806599
101293.067951
101296.096842
101324.445442
101322.816615
101308.456751
101296.096842
101289.835983
101299.832710
101304.040817
101316.806599
101320.215862
101296.096842
101322.816615
101296.096842
101290.936352
101304.040817
101290.936352
101320.215862
101320.215862
101325.000000
101322.816615
101324.445442
101289.835983
101289.835983
101320.215862
101325.000000
101308.456751
101316.806599
101304.040817
101324.445442
101293.067951
101299.832710
101290.936352
101312.803042
101322.816615
101324.445442
101308.456751
101312.803042
101274.741293
101313.289457
101301.355309
101289.029268
101295.043768
101324.207390
101307.567313
101276.314013
101325.000000
101307.567313
101301.355309
101279.360632
101283.689722
101274.741293
101283.689722
101295.043768
101289.029268
101279.360632
101289.029268
101318.162198
101313.289457
101279.360632
101321.879363
101301.355309
101295.043768
101274.741293
101295.043768
101321.879363
101276.314013
101325.000000
101276.314013
101313.289457
101283.689722
101324.207390
101318.162198
101274.741293
101318.162198
101321.879363
101283.689722
101318.162198
101276.314013
101279.360632
101324.207390
101313.289457
101307.567313
101324.207390
101289.029268
101321.879363
101301.355309
101307.567313
101282.800223
101315.167230
101310.362626
101286.678856
101305.146710
101310.362626
101284.120759
101294.797137
101286.678856
101299.847218
101294.797137
101315.167230
101286.678856
101322.379754
101324.334484
101305.146710
101290.313781
101290.313781
101282.800223
101294.797137
101299.847218
101290.313781
101315.167230
101290.313781
101322.379754
101319.258632
101284.120759
101284.120759
101299.847218
101319.258632
101319.258632
101322.379754
101325.000000
101324.334484
101319.258632
101282.800223
101282.800223
101325.000000
101315.167230
101305.146710
101299.847218
101286.678856
101324.334484
101294.797137
101284.120759
101310.362626
101322.379754
101324.334484
101305.146710
101310.362626
101265.615082
101311.163002
101297.061795
101282.497534
101289.604176
101324.063464
101304.401804
101267.473383
101325.000000
101304.401804
101297.061795
101276.188408
101289.604175
101282.497534
101271.073222
101265.615082
101276.188408
101271.073222
101282.497534
101311.163002
101271.073222
101316.920558
101321.312703
101265.615082
101297.061795
101289.604175
101289.604175
101321.312703
101267.473383
101325.000000
101267.473383
101311.163002
101276.188408
101316.920558
101324.063464
101265.615082
101276.188408
101316.920558
101321.312703
101316.920558
101271.073222
101267.473383
101311.163002
101324.063464
101304.401804
101282.497534
101324.063464
101321.312703
101297.061795
101304.401804
101274.741293
101307.567313
101313.289457
101279.360633
101301.355309
101307.567313
101276.314013
101289.029268
101295.043768
101279.360632
101313.289457
101289.029268
101279.360632
101321.879363
101301.355309
101324.207390
101283.689722
101283.689722
101274.741293
101283.689722
101289.029268
101295.043768
101313.289457
101283.689722