# vtk DataFile Version 3.0
Time Step 52, Physical Time = 0.000520s, Residual = 5.95e-03
ASCII
DATASET UNSTRUCTURED_GRID
POINTS 5000 float
0.318712 0.385257 0.000000
-0.318712 0.385257 0.000000
-0.318712 -0.385257 0.000000
0.318712 -0.385257 0.000000
0.093691 0.491144 0.000000
-0.093691 0.491144 0.000000
-0.093691 -0.491144 0.000000
0.093691 -0.491144 0.000000
0.404508 0.293893 0.000000
-0.404508 0.293893 0.000000
-0.404508 -0.293893 0.000000
0.404508 -0.293893 0.000000
0.438153 0.240877 0.000000
-0.438153 0.240877 0.000000
-0.438153 -0.240877 0.000000
0.438153 -0.240877 0.000000
0.500000 0.000000 0.000000
-0.500000 -0.000000 0.000000
0.364484 0.342274 0.000000
-0.364484 0.342274 0.000000
-0.364484 -0.342274 0.000000
0.364484 -0.342274 0.000000
0.496057 0.062667 0.000000
-0.496057 0.062667 0.000000
-0.496057 -0.062667 0.000000
0.496057 -0.062667 0.000000
0.212890 0.452414 0.000000
-0.212890 0.452414 0.000000
-0.212890 -0.452414 0.000000
0.212890 -0.452414 0.000000
0.154508 0.475528 0.000000
-0.154508 0.475528 0.000000
-0.154508 -0.475528 0.000000
0.154508 -0.475528 0.000000
0.267913 0.422164 0.000000
-0.267913 0.422164 0.000000
-0.267913 -0.422164 0.000000
0.267913 -0.422164 0.000000
0.031395 0.499013 0.000000
-0.031395 0.499013 0.000000
-0.031395 -0.499013 0.000000
0.031395 -0.499013 0.000000
0.464888 0.184062 0.000000
-0.464888 0.184062 0.000000
-0.464888 -0.184062 0.000000
0.464888 -0.184062 0.000000
0.484292 0.124345 0.000000
-0.484292 0.124345 0.000000
-0.484292 -0.124345 0.000000
0.484292 -0.124345 0.000000
-0.031454 0.499951 0.000000
0.438977 0.241329 0.000000
-0.268417 0.422957 0.000000
0.365169 0.342917 0.000000
-0.496990 -0.062784 0.000000
0.319311 -0.385981 0.000000
0.405269 0.294445 0.000000
-0.093867 0.492067 0.000000
0.500940 -0.000000 0.000000
-0.213290 0.453264 0.000000
-0.154799 0.476422 0.000000
0.031454 0.499951 0.000000
0.465762 0.184408 0.000000
0.319311 0.385981 0.000000
0.365169 -0.342917 0.000000
0.405269 -0.294445 0.000000
-0.365169 0.342917 0.000000
-0.319311 0.385981 0.000000
0.268417 0.422957 0.000000
0.213290 0.453264 0.000000
-0.319311 -0.385981 0.000000
0.154799 -0.476422 0.000000
-0.485202 -0.124579 0.000000
0.154799 0.476422 0.000000
0.268417 -0.422957 0.000000
0.093867 0.492067 0.000000
-0.031454 -0.499951 0.000000
-0.500940 0.000000 0.000000
0.438977 -0.241329 0.000000
-0.438977 -0.241329 0.000000
0.093867 -0.492067 0.000000
-0.485202 0.124579 0.000000
0.485202 0.124579 0.000000
-0.496990 0.062784 0.000000
0.213290 -0.453264 0.000000
0.031454 -0.499951 0.000000
0.496990 -0.062784 0.000000
0.465762 -0.184408 0.000000
-0.465762 -0.184408 0.000000
-0.213290 -0.453264 0.000000
-0.093867 -0.492067 0.000000
-0.405269 -0.294445 0.000000
0.496990 0.062784 0.000000
0.485202 -0.124579 0.000000
-0.154799 -0.476422 0.000000
-0.365169 -0.342917 0.000000
-0.465762 0.184408 0.000000
-0.438977 0.241329 0.000000
-0.405269 0.294445 0.000000
-0.268417 -0.422957 0.000000
-0.031523 0.501039 0.000000
0.439932 0.241854 0.000000
-0.269001 0.423877 0.000000
0.365964 0.343663 0.000000
-0.498071 -0.062921 0.000000
0.320005 -0.386820 0.000000
0.406150 0.295085 0.000000
-0.094071 0.493137 0.000000
0.502029 -0.000000 0.000000
-0.213754 0.454250 0.000000
-0.155136 0.477458 0.000000
0.031523 0.501039 0.000000
0.466775 0.184809 0.000000
0.365964 -0.343663 0.000000
0.406150 -0.295085 0.000000
0.320005 0.386820 0.000000
-0.365964 0.343663 0.000000
-0.320005 0.386820 0.000000
0.269001 0.423877 0.000000
0.213754 0.454250 0.000000
-0.320005 -0.386820 0.000000
0.155136 -0.477458 0.000000
-0.486257 -0.124850 0.000000
0.155136 0.477458 0.000000
0.269001 -0.423877 0.000000
0.094071 0.493137 0.000000
-0.031523 -0.501039 0.000000
-0.502029 0.000000 0.000000
0.439932 -0.241854 0.000000
-0.439932 -0.241854 0.000000
0.094071 -0.493137 0.000000
-0.486257 0.124850 0.000000
0.486257 0.124850 0.000000
-0.498071 0.062921 0.000000
0.213754 -0.454250 0.000000
0.031523 -0.501039 0.000000
0.466775 -0.184809 0.000000
0.498071 -0.062921 0.000000
-0.466775 -0.184809 0.000000
-0.213754 -0.454250 0.000000
-0.094071 -0.493137 0.000000
-0.406150 -0.295085 0.000000
0.498071 0.062921 0.000000
-0.155136 -0.477458 0.000000
0.486257 -0.124850 0.000000
-0.365964 -0.343663 0.000000
-0.466775 0.184809 0.000000
-0.439932 0.241854 0.000000
-0.406150 0.295085 0.000000
-0.269001 -0.423877 0.000000
-0.031604 0.502329 0.000000
0.441064 0.242477 0.000000
-0.269693 0.424969 0.000000
0.366906 0.344547 0.000000
-0.499353 -0.063083 0.000000
0.320829 -0.387816 0.000000
0.407196 0.295845 0.000000
-0.094313 0.494407 0.000000
0.503322 -0.000000 0.000000
-0.214304 0.455419 0.000000
-0.155535 0.478688 0.000000
0.031604 0.502329 0.000000
0.467977 0.185285 0.000000
0.366906 -0.344547 0.000000
0.407196 -0.295845 0.000000
0.320829 0.387816 0.000000
0.269693 0.424969 0.000000
-0.366906 0.344547 0.000000
-0.320829 0.387816 0.000000
0.214304 0.455419 0.000000
-0.320829 -0.387816 0.000000
0.155535 -0.478688 0.000000
-0.487509 -0.125171 0.000000
0.155535 0.478688 0.000000
0.269693 -0.424969 0.000000
-0.031604 -0.502329 0.000000
0.094313 0.494407 0.000000
-0.503322 0.000000 0.000000
0.441064 -0.242477 0.000000
-0.441064 -0.242477 0.000000
-0.487509 0.125171 0.000000
0.094313 -0.494407 0.000000
0.487509 0.125171 0.000000
-0.499353 0.063083 0.000000
0.214304 -0.455419 0.000000
0.031604 -0.502329 0.000000
0.467977 -0.185285 0.000000
0.499353 -0.063083 0.000000
-0.467977 -0.185285 0.000000
-0.214304 -0.455419 0.000000
-0.094313 -0.494407 0.000000
-0.407196 -0.295845 0.000000
0.499353 0.063083 0.000000
-0.155535 -0.478688 0.000000
0.487509 -0.125171 0.000000
-0.467977 0.185285 0.000000
-0.366906 -0.344547 0.000000
-0.441064 0.242477 0.000000
-0.407196 0.295845 0.000000
-0.269693 -0.424969 0.000000
-0.031700 0.503862 0.000000
0.442411 0.243217 0.000000
-0.270517 0.426266 0.000000
0.368026 0.345599 0.000000
-0.500877 -0.063276 0.000000
0.321809 -0.389000 0.000000
0.408439 0.296748 0.000000
-0.094601 0.495916 0.000000
0.504858 -0.000000 0.000000
-0.214958 0.456810 0.000000
-0.156010 0.480149 0.000000
0.031700 0.503862 0.000000
0.469405 0.185851 0.000000
0.368026 -0.345599 0.000000
0.408439 -0.296748 0.000000
0.321809 0.389000 0.000000
0.270517 0.426266 0.000000
-0.368026 0.345599 0.000000
-0.321809 0.389000 0.000000
0.214958 0.456810 0.000000
-0.321809 -0.389000 0.000000
0.156010 -0.480149 0.000000
0.270517 -0.426266 0.000000
-0.488997 -0.125553 0.000000
0.156010 0.480149 0.000000
-0.031700 -0.503862 0.000000
0.094601 0.495916 0.000000
-0.504858 0.000000 0.000000
0.442411 -0.243217 0.000000
-0.442411 -0.243217 0.000000
-0.488997 0.125553 0.000000
0.094601 -0.495916 0.000000
0.488997 0.125553 0.000000
-0.500877 0.063276 0.000000
0.214958 -0.456810 0.000000
0.031700 -0.503862 0.000000
0.469405 -0.185851 0.000000
0.500877 -0.063276 0.000000
-0.469405 -0.185851 0.000000
-0.214958 -0.456810 0.000000
-0.094601 -0.495916 0.000000
-0.408439 -0.296748 0.000000
-0.469405 0.185851 0.000000
0.500877 0.063276 0.000000
-0.156010 -0.480149 0.000000
0.488997 -0.125553 0.000000
-0.368026 -0.345599 0.000000
-0.442411 0.243217 0.000000
-0.408439 0.296748 0.000000
-0.270517 -0.426266 0.000000
-0.031815 0.505686 0.000000
0.444012 0.244098 0.000000
-0.271496 0.427809 0.000000
0.369358 0.346850 0.000000
-0.502691 -0.063505 0.000000
0.322974 -0.390408 0.000000
0.409918 0.297823 0.000000
-0.094943 0.497711 0.000000
0.506686 -0.000000 0.000000
-0.215736 0.458463 0.000000
-0.156575 0.481887 0.000000
0.031815 0.505686 0.000000
0.369358 -0.346850 0.000000
0.409918 -0.297823 0.000000
0.471105 0.186524 0.000000
0.322974 0.390408 0.000000
0.271496 0.427809 0.000000
-0.369358 0.346850 0.000000
-0.322974 0.390408 0.000000
0.215736 0.458463 0.000000
0.156575 -0.481887 0.000000
-0.322974 -0.390408 0.000000
0.271496 -0.427809 0.000000
-0.490768 -0.126008 0.000000
0.156575 0.481887 0.000000
-0.031815 -0.505686 0.000000
0.094943 0.497711 0.000000
-0.506686 0.000000 0.000000
0.444012 -0.244098 0.000000
-0.490768 0.126008 0.000000
-0.444012 -0.244098 0.000000
0.094943 -0.497711 0.000000
0.490768 0.126008 0.000000
-0.502691 0.063505 0.000000
0.215736 -0.458463 0.000000
0.031815 -0.505686 0.000000
0.471105 -0.186524 0.000000
-0.471105 -0.186524 0.000000
0.502691 -0.063505 0.000000
-0.215736 -0.458463 0.000000
-0.094943 -0.497711 0.000000
-0.409918 -0.297823 0.000000
-0.471105 0.186524 0.000000
0.502691 0.063505 0.000000
-0.156575 -0.481887 0.000000
0.490768 -0.126008 0.000000
-0.369358 -0.346850 0.000000
-0.444012 0.244098 0.000000
-0.409918 0.297823 0.000000
-0.271496 -0.427809 0.000000
-0.031952 0.507855 0.000000
0.445917 0.245145 0.000000
-0.272661 0.429644 0.000000
0.370943 0.348338 0.000000
-0.504847 -0.063777 0.000000
0.324359 -0.392083 0.000000
0.411676 0.299100 0.000000
-0.095351 0.499846 0.000000
0.508859 -0.000000 0.000000
-0.216662 0.460430 0.000000
-0.157246 0.483954 0.000000
0.031952 0.507855 0.000000
0.370943 -0.348338 0.000000
0.411676 -0.299100 0.000000
0.324359 0.392083 0.000000
0.473126 0.187324 0.000000
0.272661 0.429644 0.000000
-0.370943 0.348338 0.000000
-0.324359 0.392083 0.000000
0.216662 0.460430 0.000000
0.157246 -0.483954 0.000000
-0.324359 -0.392083 0.000000
0.272661 -0.429644 0.000000
0.157246 0.483954 0.000000
-0.492873 -0.126548 0.000000
-0.031952 -0.507855 0.000000
0.095351 0.499846 0.000000
0.445917 -0.245145 0.000000
-0.508859 0.000000 0.000000
-0.492873 0.126548 0.000000
-0.445917 -0.245145 0.000000
0.095351 -0.499846 0.000000
-0.504847 0.063777 0.000000
0.216662 -0.460430 0.000000
0.492873 0.126548 0.000000
0.031952 -0.507855 0.000000
0.473126 -0.187324 0.000000
-0.473126 -0.187324 0.000000
0.504847 -0.063777 0.000000
-0.216662 -0.460430 0.000000
-0.095351 -0.499846 0.000000
-0.473126 0.187324 0.000000
-0.411676 -0.299100 0.000000
-0.157246 -0.483954 0.000000
0.504847 0.063777 0.000000
0.492873 -0.126548 0.000000
-0.370943 -0.348338 0.000000
-0.445917 0.245145 0.000000
-0.411676 0.299100 0.000000
-0.272661 -0.429644 0.000000
0.318712 0.385257 0.100000
-0.318712 0.385257 0.100000
[...]
POINT_DATA 5000
SCALARS pressure float 1
LOOKUP_TABLE default
101648.272659
101648.272659
101648.272659
101648.272659
101648.272659
101648.272659
101648.272659
101648.272659
101648.272659
101648.272659
101648.272659
101648.272659
101648.272659
101648.272659
101648.272659
101648.272659
101325.000000
101325.000000
101325.000000
101325.000000
101325.000000
101325.000000
101325.000000
101325.000000
101325.000000
101325.000000
101325.000000
101325.000000
101325.000000
101325.000000
101325.000000
101325.000000
101325.000000
101325.000000
101325.000000
101325.000000
101325.000000
101325.000000
101325.000000
101325.000000
101325.000000
101325.000000
101325.000000
101325.000000
101325.000000
101325.000000
101325.000000
101325.000000
101325.000000
101325.000000
101324.034555
101324.775046
101324.309020
101324.545797
101324.984774
101324.424556
101324.665127
101324.064767
101325.000000
101324.206450
101324.123291
101324.034555
101324.868649
101324.424556
101324.545797
101324.665127
101324.545797
101324.424556
101324.309020
101324.206450
101324.424556
101324.123291
101324.940054
101324.123291
101324.309020
101324.064767
101324.034555
101325.000000
101324.775046
101324.775046
101324.064767
101324.940054
101324.940054
101324.984774
101324.206450
101324.034555
101324.984774
101324.868649
101324.868649
101324.206450
101324.064767
101324.665127
101324.984774
101324.940054
101324.123291
101324.545797
101324.868649
101324.775046
101324.665127
101324.309020
101322.921829
101324.515775
101323.512629
101324.022305
101324.967226
101323.761326
101324.279168
101322.986860
101325.000000
101323.291842
101323.112836
101322.921829
101324.717260
101324.022305
101324.279168
101323.761326
101324.022305
101323.761326
101323.512629
101323.291842
101323.761326
101323.112836
101324.870963
101323.112836
101323.512629
101322.986860
101322.921829
101325.000000
101324.515775
101324.515775
101322.986860
101324.870963
101324.870963
101324.967226
101323.291842
101322.921829
101324.717260
101324.967226
101324.717260
101323.291842
101322.986860
101324.279168
101324.967226
101323.112836
101324.870963
101324.022305
101324.717260
101324.515775
101324.279168
101323.512629
101321.611021
101324.210350
101322.574469
101323.405622
101324.946554
101322.980031
101323.824502
101321.717070
101325.000000
101322.214419
101321.922506
101321.611021
101324.538922
101323.405622
101323.824502
101322.980031
101322.574469
101323.405622
101322.980031
101322.214419
101322.980031
101321.922506
101324.789573
101321.922506
101322.574469
101321.611021
101321.717070
101325.000000
101324.210350
101324.210350
101324.789573
101321.717070
101324.789573
101324.946554
101322.214419
101321.611021
101324.538922
101324.946554
101324.538922
101322.214419
101321.717070
101323.824502
101324.946554
101321.922506
101324.789573
101324.538922
101323.405622
101324.210350
101323.824502
101322.574469
101320.065963
101323.850343
101321.468653
101322.678735
101324.922187
101322.059114
101323.288585
101320.220361
101325.000000
101320.944455
101320.519457
101320.065963
101324.328714
101322.678735
101323.288585
101322.059114
101321.468653
101322.678735
101322.059114
101320.944455
101322.059114
101320.519457
101321.468653
101324.693638
101320.519457
101320.065963
101320.220361
101325.000000
101323.850343
101323.850343
101324.693638
101320.220361
101324.693638
101324.922187
101320.944455
101320.065963
101324.328714
101324.922187
101324.328714
101320.944455
101320.220361
101323.288585
101324.328714
101324.922187
101320.519457
101324.693638
101322.678735
101323.850343
101323.288585
101321.468653
101318.246498
101323.426398
101320.166441
101321.822750
101324.893493
101320.974638
101322.657487
101318.457831
101325.000000
101319.448941
101318.867220
101318.246498
101321.822750
101322.657487
101324.081172
101320.974638
101320.166441
101321.822750
101320.974638
101319.448941
101318.867220
101320.974638
101320.166441
101324.580665
101318.867220
101318.246498
101318.457831
101325.000000
101323.426398
101324.580665
101323.426398
101318.457831
101324.580665
101324.893493
101319.448941
101318.246498
101324.081172
101324.081172
101324.893493
101319.448941
101318.457831
101322.657487
101324.081172
101324.893493
101318.867220
101324.580665
101321.822750
101323.426398
101322.657487
101320.166441
101316.108275
101322.928181
101318.636091
101320.816803
101324.859772
101319.700171
101321.915825
101316.386520
101325.000000
101317.691423
101316.925525
101316.108275
101320.816803
101321.915825
101319.700171
101323.790262
101318.636091
101320.816803
101319.700171
101317.691423
101316.925525
101319.700171
101318.636091
101316.925525
101324.447900
101316.108275
101316.386520
101322.928181
101325.000000
101324.447900
101322.928181
101316.386520
101324.859772
101317.691423
101324.447900
101316.108275
101323.790262
101323.790262
101324.859772
101317.691423
101316.386520
101323.790262
101321.915825
101316.925525
101324.859772
101324.447900
101320.816803
101322.928181
101321.915825
101318.636091
101648.272659
101648.272659
101648.272659
101648.272659
101648.272659
101648.272659
101648.272659
101648.272659
101648.272659
101648.272659
101648.272659
101648.272659
101648.272659
101648.272659
101648.272659
101648.272659
101325.000000
101325.000000
101325.000000
101325.000000
101325.000000
101325.000000
101325.000000
101325.000000
101325.000000
101325.000000
101325.000000
101325.000000
101325.000000
101325.000000
101325.000000
101325.000000
101325.000000
101325.000000
101325.000000
101325.000000
101325.000000
101325.000000
101325.000000
101325.000000
101325.000000
101325.000000
101325.000000
101325.000000
101325.000000
101325.000000
101325.000000
101325.000000
101325.000000
101325.000000
101324.034555
101324.775046
101324.064767
101324.665127
101324.665127
101324.123291
101324.545797
101324.123291
101324.309020
101324.206450
101324.309020
101324.424556
101324.775046
101324.034555
101324.984774
101324.123291
101324.545797
101324.868649
101324.940054
101324.206450
101324.424556
101324.064767
101324.424556
101324.309020
101324.940054
101324.775046
101325.000000
101324.206450
101324.940054
101324.064767
101324.206450
101324.868649
101324.868649
101325.000000
101324.984774
101324.545797
101324.034555
101324.034555
101324.424556
101324.984774
101324.775046
101324.868649
101324.665127
101324.984774
101324.123291
101324.064767
101324.309020
101324.940054
101324.545797
101324.665127
101313.602290
101322.344274
101319.637838
101316.842528
101324.820251
101318.206501
101321.046601
101313.958952
101325.000000
101315.631621
101314.649867
101313.602289
101319.637838
101321.046601
101318.206501
101323.449318
101316.842528
101315.631621
101319.637838
101318.206501
101314.649867
101318.206501
101316.842528
101314.649867
101324.292299
101313.602289
101313.958952
101322.344273
101325.000000
101324.292299
101322.344273
101313.958952
101315.631621
101324.820251
101324.292299
101313.602289
101323.449318
101323.449318
101324.820251
101315.631621
101323.449318
101313.958952
101321.046601
101314.649867
101324.820251
101324.292299
101319.637838
101322.344273
101321.046601
101316.842528
101322.921829
101324.515775
101322.986860
101324.279168
101324.279168
101324.022305
101323.112836
101323.112836
101323.512629
101323.291842
101323.512629
101323.761326
101324.515775
101322.921829
101324.967226
101323.112836
101324.022305
101324.717260
101324.870963
101323.291842
101323.761326
101322.986860
101323.761326
101323.512629
101324.870963
101324.515775
101323.291842
101325.000000
101324.870963
101322.986860
101323.291842
101324.717260
101324.717260
101324.967226
101325.000000
101324.022305
101322.921829
101322.921829
101323.761326
101324.967226
101324.515775
101324.717260
101324.279168
101324.967226
101323.112836
101322.986860
101323.512629
101324.870963
101324.022305
101324.279168
101321.611021
101324.210350
101321.717070
101323.824502
101323.824502
101323.405622
101321.922506
101321.922506
101322.574469
101322.214419
101322.574469
101322.980031
101324.210350
101324.946554
101321.611021
101321.922506
101323.405622
101324.789573
101324.538922
101322.214419
101322.980031
101321.717070
101322.980031
101322.574469
101324.789573
101324.210350
101322.214419
101325.000000
101324.789573
101321.717070
101322.214419
101324.538922
101324.538922
101324.946554
101325.000000
101323.405622
101321.611021
101321.611021
101322.980031
101324.946554
101324.210350
101324.538922
101323.824502
101324.946554
101321.922506
101321.717070
101322.574469
101324.789573
101323.405622
101323.824502
101310.672183
101321.661543
101318.259341
101314.745417
101324.774042
101316.460039
101320.030267
101311.120536
101325.000000
101313.223212
101311.989070
101310.672183
101320.030267
101318.259341
101316.460039
101323.050671
101314.745417
101313.223212
101318.259341
101316.460039
101311.989070
101314.745417
101316.460039
101311.989070
101324.110365
101310.672183
101321.661543
101311.120536
101325.000000
101324.110365
101321.661543
101311.120536
101313.223212
101324.774042
101324.110365
101310.672183
101323.050670
101323.050670
101324.774042
101313.223212
101323.050670
101311.120536
101320.030267
101311.989070
101324.774042
101321.661543
101324.110365
101318.259341
101314.745417
101320.030267
101320.065963
101323.850343
101320.220361
101323.288585
101323.288585
101322.678735
101320.519457
101320.519457
101321.468653
101321.468653
101320.944455
101322.059114
101323.850343
101324.922187
101320.065963
101320.519457
101322.678735
101324.693638
101324.328714
101320.944455
101322.059114
101320.220361
101322.059114
101321.468653
101324.693638
101323.850343
101320.944455
101325.000000
101324.693638
101320.220361
101320.944455
101324.328714
101324.328714
101324.922187
101325.000000
101322.678735
101320.065963
101320.065963
101322.059114
101324.922187
101323.850343
101324.328714
101323.288585
101324.922187
101320.519457
101320.220361
101321.468653
101324.693638
101322.678735
101323.288585
101318.246498
101323.426398
101322.657487
101318.457831
101322.657487
101321.822750
101318.867220
101318.867220
101320.166441
101320.166441
101319.448941
101320.974638
101323.426398
101324.893493
101318.867220
101318.246498
101321.822750
101324.580665
101319.448941
101324.081172
101320.974638
101318.457831
101320.166441
101320.974638
101324.580665
101323.426398
101319.448941
101325.000000
101318.457831
101324.580665
101319.448941
101324.081172
101324.081172
101324.893493
101325.000000
101321.822750
101318.246498
101318.246498
101320.974638
101324.893493
101323.426398
101324.081172
101322.657487
101318.867220
101318.457831
101324.893493
101320.166441
101324.580665
101321.822750
101322.657487
101307.252432
101320.864723
101316.650486
101312.297862
101324.720110
101314.421728
101318.844095
101307.807797
101325.000000
101310.412339
101308.883633
101307.252432
101318.844095
101316.650486
101314.421728
101312.297862
101322.585406
101310.412339
101316.650486
101314.421728
101308.883633
101312.297862
101314.421728
101308.883633
101323.898028
101307.252432
101320.864723
101307.807797
101325.000000
101323.898027
101307.807797
101320.864723
101310.412339
101324.720110
101323.898028
101307.252432
101322.585406
101322.585406
101322.585406
101310.412339
101324.720110
101307.807797
101308.883633
101318.844095
101324.720110
101320.864723
101323.898027
101316.650486
101312.297862
101318.844095
101316.108275
101322.928181
101321.915825
101316.386520
101321.915825
101320.816803
101316.925525
101316.925525
101318.636091
101318.636091
101317.691423
101319.700171
101322.928181
101324.859772
101316.925525
101316.108275
101320.816803
101324.447900
101317.691423
101323.790262
101319.700171
101318.636091
101316.386520
101319.700171
101324.447900
101322.928181
101317.691423
101325.000000
101316.386520
101324.447900
101317.691423
101323.790262
101323.790262
101324.859772
101325.000000
101320.816803
101316.108275
101316.108275
101319.700171
101323.790262
101322.928181
101324.859772
101321.915825
101316.925525
101316.386520
101318.636091
101324.859772
101324.447900
101320.816803
101321.915825
101313.602290
101322.344273
101321.046601
101321.046601
101319.637838
101313.958952
101314.649867
101314.649867
101316.842528
101316.842528
101315.631621
101318.206501
101322.344273
101324.820251
101314.649867
101313.602289
101319.637838
101324.292299
101315.631621
101323.449318
101318.206501
101316.842528
101313.958952
101324.292299
101322.344273
101318.206501
101315.631621
101313.958952
101325.000000
101315.631621
101324.292299
101323.449318
101323.449318
101324.820251
101325.000000
101313.602289
101319.637838
101313.602289
101318.206501
101323.449318
101322.344273
101324.820251
101321.046601
101314.649867
101313.958952
101316.842528
101324.820251
101324.292299
101319.637838
101321.046601
101303.285576
101319.940425
101314.784241
101309.458738
101324.657551
101312.057321
101317.468156
101303.965074
101325.000000
101307.151771
101305.281375
101303.285576
101317.468156
101314.784241
101312.057321
101309.458738
101307.151771
101322.045707
101305.281375
101314.784241
101312.057321
101309.458738
101305.281375
101312.057321
101323.651720
101319.940425
101303.285576
101303.965074
101325.000000
101323.651720
101303.965074
101319.940425
101307.151771
101324.657551
101323.651720
101303.285576
101322.045707
101322.045707
101322.045707
101307.151771
101324.657551
101303.965074
101305.281375
101317.468155
101319.940425
101324.657551
101323.651720
101314.784241
101309.458738
101317.468155
101310.672183
101321.661543
101320.030267
101320.030267
101318.259341
101311.989070
101311.120536
101311.989070
101314.745417
101314.745417
101316.460039
101313.223212
101321.661543
101311.989070
101324.774042
101310.672183
101318.259341
101324.110365
101313.223212
101323.050671
101316.460039
101314.745417
101311.120536
101321.661543
101324.110365
101316.460039
101313.223212
101311.120536
101313.223212
101325.000000
101324.110365
101323.050670
101323.050670
101324.774042
101325.000000
101310.672183
101310.672183
101318.259341
101323.050670
101316.460039
101321.661543
101324.774042
101320.030267
101311.989070
101311.120536
101314.745417
101324.110365
101324.774042
101318.259341
101320.030267
101298.706420
101318.873458
101312.629933
101306.181384
101324.585335
101309.327958
101315.879834
101299.529212
101325.000000
101301.123095
101303.387922
101298.706420
101315.879834
101312.629933
101309.327958
101306.181384
101303.387922
101321.422703
101301.123095
101306.181384
101312.629933
101309.327958
101301.123095
101323.367393
101318.873458
101309.327958
101298.706420
101299.529212
101323.367393
101325.000000
101299.529212
101318.873458
101303.387922
101324.585335
101298.706420
101323.367393
101321.422703
101321.422703
101321.422703
101303.387922
101299.529212
101324.585335
101301.123095
101315.879834
101318.873458
101324.585335
101323.367393
101312.629933
101306.181384
101315.879834
101307.252432
101320.864723
101318.844095
101318.844095
101316.650486
101308.883633
101307.807797
101308.883633
101312.297862
101312.297862
101314.421728
101310.412339
101320.864723
101308.883633
101324.720110
101316.650486
101323.898027
101307.252432
101310.412339
101322.585406
101314.421728
101312.297862
101320.864723
101307.807797
101323.898028
101310.412339
101314.421728
101310.412339
101307.807797
101325.000000
101323.898028
101322.585406
101322.585406
101324.720110
101325.000000
101307.252432
101307.252432
101316.650486
101322.585406
101314.421728
101320.864723
101324.720110
101308.883633
101318.844095
101307.807797
101312.297862
101323.898027
101324.720110
101316.650486
101318.844095
101303.285576
101319.940425
101317.468156
101305.281375
101314.784241
101317.468156
101303.965074
101305.281375
101309.458738
101309.458738
101312.057321
101319.940425
101307.151771
101305.281375
101324.657551
101314.784241
101323.651720
101303.285576
101307.151771
101312.057321
101309.458738
101322.045707
101319.940425
101303.965074
101323.651720
101307.151771
101307.151771
101312.057321
101303.965074
101325.000000
101323.651720
101322.045707
101322.045707
101324.657551
101303.285576
101303.285576
101325.000000
101322.045707
101314.784241
101312.057321
101319.940425
101324.657551
101305.281375
101309.458738
101303.965074
101317.468155
101323.651720
101324.657551
101314.784241
101317.468155
101293.445494
101317.647634
101310.154880
101302.416079
101306.192232
101324.502367
101314.055034
101294.432913
101325.000000
101296.345707
101299.063690
101314.055034
101293.445494
101310.154880
101306.192232
101299.063690
101302.416079
101320.706943
101296.345707
101302.416079
101296.345707
101310.154880
101317.647634
101306.192232
101323.040734
101293.445494
101306.192232
101294.432913
101323.040734
101325.000000
101294.432913
101317.647634
101299.063689
101324.502367
101293.445494
101323.040734
101320.706943
101320.706943
101320.706943
101299.063689
101294.432913
101296.345707
101324.502367
101317.647634
101314.055034
101324.502367
101323.040734
101302.416079
101310.154880
101314.055034
101298.706420
101318.873458
101315.879834
101301.123095
101312.629933
101315.879834
101299.529212
101301.123095
101306.181384
101306.181384
101309.327958
101318.873458
101301.123095
101303.387922
101324.585335
101323.367393
101312.629933
101303.387922
101298.706420
101306.181384
101309.327958
101318.873458
101321.422703
101303.387922
101323.367393
101303.387922
101299.529212
101309.327958
101299.529212
101321.422703
101321.422703
101325.000000
101323.367393
101324.585335
101298.706420
101298.706420
101321.422703
101325.000000
101312.629933
101318.873458
101309.327958
101324.585335
101301.123095
101306.181384
101299.529212
101315.879834
101323.367393
101324.585335
101312.629933
101315.879834
101287.419501
101316.243546
101307.319894
101298.103207
101302.600495
101324.407333
101311.964864
101288.595488
101325.000000
101311.964864
101307.319893
101290.873571
101294.110609
101287.419501
101294.110609
101302.600495
101298.103207
101290.873571
101298.103207
101319.887094
101316.243546
101290.873571
101322.666572
101307.319893
101302.600495
101287.419501
101302.600495
101322.666572
101288.595488
101325.000000
101288.595488
101316.243546
101294.110608
101324.407333
101319.887094
101287.419501
101319.887094
101322.666572
101294.110608
101319.887094
101288.595488
101290.873571
101324.407333
101316.243546
101311.964864
101324.407333
101298.103207
101322.666572
101307.319893
101311.964864
101293.445494
101317.647634
101314.055034
101296.345707
101310.154880
101314.055034
101294.432913
101302.416079
101296.345707
101306.192232
101302.416079
101317.647634
101296.345707
101323.040734
101324.502367
101310.154880
101299.063690
101299.063690
101293.445494
101302.416079
101306.192232
101299.063690
101317.647634
101299.063690
101323.040734
101320.706943
101294.432913
101294.432913
101306.192232
101320.706943
101320.706943
101323.040734
101325.000000
101324.502367
101320.706943
101293.445494
101293.445494
101325.000000
101317.647634
101310.154880
101306.192232
101296.345707
101324.502367
101302.416079
101294.432913
101314.055034
101323.040734
101324.502367
101310.154880
101314.055034
101280.595458
101314.653508
101304.109457
101293.219161
101298.533088
101324.299714
101309.597883
101281.984986
101325.000000
101309.597883
101304.109457
101288.501568
101298.533088
101293.219161
101284.676734
101280.595458
101288.501568
101284.676734
101293.219161
101314.653508
101284.676734
101318.958669
101322.242857
101280.595458
101304.109457
101298.533088
101298.533088
101322.242857
101281.984986
101325.000000
101281.984986
101314.653508
101288.501568
101318.958669
101324.299714
101280.595458
101288.501568
101318.958669
101322.242857
101318.958669
101284.676734
101281.984986
101314.653508
101324.299714
101309.597883
101293.219161
101324.299714
101322.242857
101304.109457
101309.597883
101287.419501
101311.964864
101316.243546
101290.873571
101307.319893
101311.964864
101288.595488
101298.103207
101302.600495
101290.873571
101316.243546
101298.103207
101290.873571
101322.666572
101307.319893
101324.407333
101294.110608
101294.110609
101287.419501
101294.110608
101298.103207
101302.600495
101316.243546
101294.110608