# vtk DataFile Version 3.0
Time Step 172, Physical Time = 0.001720s, Residual = 1.79e-03
ASCII
DATASET UNSTRUCTURED_GRID
POINTS 5000 float
0.318712 0.385257 0.000000
-0.318712 0.385257 0.000000
-0.318712 -0.385257 0.000000
0.318712 -0.385257 0.000000
0.093691 0.491144 0.000000
-0.093691 0.491144 0.000000
-0.093691 -0.491144 0.000000
0.093691 -0.491144 0.000000
0.404508 0.293893 0.000000
-0.404508 0.293893 0.000000
-0.404508 -0.293893 0.000000
0.404508 -0.293893 0.000000
0.438153 0.240877 0.000000
-0.438153 0.240877 0.000000
-0.438153 -0.240877 0.000000
0.438153 -0.240877 0.000000
0.500000 0.000000 0.000000
-0.500000 -0.000000 0.000000
0.364484 0.342274 0.000000
-0.364484 0.342274 0.000000
-0.364484 -0.342274 0.000000
0.364484 -0.342274 0.000000
0.496057 0.062667 0.000000
-0.496057 0.062667 0.000000
-0.496057 -0.062667 0.000000
0.496057 -0.062667 0.000000
0.212890 0.452414 0.000000
-0.212890 0.452414 0.000000
-0.212890 -0.452414 0.000000
0.212890 -0.452414 0.000000
0.154508 0.475528 0.000000
-0.154508 0.475528 0.000000
-0.154508 -0.475528 0.000000
0.154508 -0.475528 0.000000
0.267913 0.422164 0.000000
-0.267913 0.422164 0.000000
-0.267913 -0.422164 0.000000
0.267913 -0.422164 0.000000
0.031395 0.499013 0.000000
-0.031395 0.499013 0.000000
-0.031395 -0.499013 0.000000
0.031395 -0.499013 0.000000
0.464888 0.184062 0.000000
-0.464888 0.184062 0.000000
-0.464888 -0.184062 0.000000
0.464888 -0.184062 0.000000
0.484292 0.124345 0.000000
-0.484292 0.124345 0.000000
-0.484292 -0.124345 0.000000
0.484292 -0.124345 0.000000
-0.031454 0.499951 0.000000
0.438977 0.241329 0.000000
-0.268417 0.422957 0.000000
0.365169 0.342917 0.000000
-0.496990 -0.062784 0.000000
0.319311 -0.385981 0.000000
0.405269 0.294445 0.000000
-0.093867 0.492067 0.000000
0.500940 -0.000000 0.000000
-0.213290 0.453264 0.000000
-0.154799 0.476422 0.000000
0.031454 0.499951 0.000000
0.465762 0.184408 0.000000
0.319311 0.385981 0.000000
0.365169 -0.342917 0.000000
0.405269 -0.294445 0.000000
-0.365169 0.342917 0.000000
-0.319311 0.385981 0.000000
0.268417 0.422957 0.000000
0.213290 0.453264 0.000000
-0.319311 -0.385981 0.000000
0.154799 -0.476422 0.000000
-0.485202 -0.124579 0.000000
0.154799 0.476422 0.000000
0.268417 -0.422957 0.000000
0.093867 0.492067 0.000000
-0.031454 -0.499951 0.000000
-0.500940 0.000000 0.000000
0.438977 -0.241329 0.000000
-0.438977 -0.241329 0.000000
0.093867 -0.492067 0.000000
-0.485202 0.124579 0.000000
0.485202 0.124579 0.000000
-0.496990 0.062784 0.000000
0.213290 -0.453264 0.000000
0.031454 -0.499951 0.000000
0.496990 -0.062784 0.000000
0.465762 -0.184408 0.000000
-0.465762 -0.184408 0.000000
-0.213290 -0.453264 0.000000
-0.093867 -0.492067 0.000000
-0.405269 -0.294445 0.000000
0.496990 0.062784 0.000000
0.485202 -0.124579 0.000000
-0.154799 -0.476422 0.000000
-0.365169 -0.342917 0.000000
-0.465762 0.184408 0.000000
-0.438977 0.241329 0.000000
-0.405269 0.294445 0.000000
-0.268417 -0.422957 0.000000
-0.031523 0.501039 0.000000
0.439932 0.241854 0.000000
-0.269001 0.423877 0.000000
0.365964 0.343663 0.000000
-0.498071 -0.062921 0.000000
0.320005 -0.386820 0.000000
0.406150 0.295085 0.000000
-0.094071 0.493137 0.000000
0.502029 -0.000000 0.000000
-0.213754 0.454250 0.000000
-0.155136 0.477458 0.000000
0.031523 0.501039 0.000000
0.466775 0.184809 0.000000
0.365964 -0.343663 0.000000
0.406150 -0.295085 0.000000
0.320005 0.386820 0.000000
-0.365964 0.343663 0.000000
-0.320005 0.386820 0.000000
0.269001 0.423877 0.000000
0.213754 0.454250 0.000000
-0.320005 -0.386820 0.000000
0.155136 -0.477458 0.000000
-0.486257 -0.124850 0.000000
0.155136 0.477458 0.000000
0.269001 -0.423877 0.000000
0.094071 0.493137 0.000000
-0.031523 -0.501039 0.000000
-0.502029 0.000000 0.000000
0.439932 -0.241854 0.000000
-0.439932 -0.241854 0.000000
0.094071 -0.493137 0.000000
-0.486257 0.124850 0.000000
0.486257 0.124850 0.000000
-0.498071 0.062921 0.000000
0.213754 -0.454250 0.000000
0.031523 -0.501039 0.000000
0.466775 -0.184809 0.000000
0.498071 -0.062921 0.000000
-0.466775 -0.184809 0.000000
-0.213754 -0.454250 0.000000
-0.094071 -0.493137 0.000000
-0.406150 -0.295085 0.000000
0.498071 0.062921 0.000000
-0.155136 -0.477458 0.000000
0.486257 -0.124850 0.000000
-0.365964 -0.343663 0.000000
-0.466775 0.184809 0.000000
-0.439932 0.241854 0.000000
-0.406150 0.295085 0.000000
-0.269001 -0.423877 0.000000
-0.031604 0.502329 0.000000
0.441064 0.242477 0.000000
-0.269693 0.424969 0.000000
0.366906 0.344547 0.000000
-0.499353 -0.063083 0.000000
0.320829 -0.387816 0.000000
0.407196 0.295845 0.000000
-0.094313 0.494407 0.000000
0.503322 -0.000000 0.000000
-0.214304 0.455419 0.000000
-0.155535 0.478688 0.000000
0.031604 0.502329 0.000000
0.467977 0.185285 0.000000
0.366906 -0.344547 0.000000
0.407196 -0.295845 0.000000
0.320829 0.387816 0.000000
0.269693 0.424969 0.000000
-0.366906 0.344547 0.000000
-0.320829 0.387816 0.000000
0.214304 0.455419 0.000000
-0.320829 -0.387816 0.000000
0.155535 -0.478688 0.000000
-0.487509 -0.125171 0.000000
0.155535 0.478688 0.000000
0.269693 -0.424969 0.000000
-0.031604 -0.502329 0.000000
0.094313 0.494407 0.000000
-0.503322 0.000000 0.000000
0.441064 -0.242477 0.000000
-0.441064 -0.242477 0.000000
-0.487509 0.125171 0.000000
0.094313 -0.494407 0.000000
0.487509 0.125171 0.000000
-0.499353 0.063083 0.000000
0.214304 -0.455419 0.000000
0.031604 -0.502329 0.000000
0.467977 -0.185285 0.000000
0.499353 -0.063083 0.000000
-0.467977 -0.185285 0.000000
-0.214304 -0.455419 0.000000
-0.094313 -0.494407 0.000000
-0.407196 -0.295845 0.000000
0.499353 0.063083 0.000000
-0.155535 -0.478688 0.000000
0.487509 -0.125171 0.000000
-0.467977 0.185285 0.000000
-0.366906 -0.344547 0.000000
-0.441064 0.242477 0.000000
-0.407196 0.295845 0.000000
-0.269693 -0.424969 0.000000
-0.031700 0.503862 0.000000
0.442411 0.243217 0.000000
-0.270517 0.426266 0.000000
0.368026 0.345599 0.000000
-0.500877 -0.063276 0.000000
0.321809 -0.389000 0.000000
0.408439 0.296748 0.000000
-0.094601 0.495916 0.000000
0.504858 -0.000000 0.000000
-0.214958 0.456810 0.000000
-0.156010 0.480149 0.000000
0.031700 0.503862 0.000000
0.469405 0.185851 0.000000
0.368026 -0.345599 0.000000
0.408439 -0.296748 0.000000
0.321809 0.389000 0.000000
0.270517 0.426266 0.000000
-0.368026 0.345599 0.000000
-0.321809 0.389000 0.000000
0.214958 0.456810 0.000000
-0.321809 -0.389000 0.000000
0.156010 -0.480149 0.000000
0.270517 -0.426266 0.000000
-0.488997 -0.125553 0.000000
0.156010 0.480149 0.000000
-0.031700 -0.503862 0.000000
0.094601 0.495916 0.000000
-0.504858 0.000000 0.000000
0.442411 -0.243217 0.000000
-0.442411 -0.243217 0.000000
-0.488997 0.125553 0.000000
0.094601 -0.495916 0.000000
0.488997 0.125553 0.000000
-0.500877 0.063276 0.000000
0.214958 -0.456810 0.000000
0.031700 -0.503862 0.000000
0.469405 -0.185851 0.000000
0.500877 -0.063276 0.000000
-0.469405 -0.185851 0.000000
-0.214958 -0.456810 0.000000
-0.094601 -0.495916 0.000000
-0.408439 -0.296748 0.000000
-0.469405 0.185851 0.000000
0.500877 0.063276 0.000000
-0.156010 -0.480149 0.000000
0.488997 -0.125553 0.000000
-0.368026 -0.345599 0.000000
-0.442411 0.243217 0.000000
-0.408439 0.296748 0.000000
-0.270517 -0.426266 0.000000
-0.031815 0.505686 0.000000
0.444012 0.244098 0.000000
-0.271496 0.427809 0.000000
0.369358 0.346850 0.000000
-0.502691 -0.063505 0.000000
0.322974 -0.390408 0.000000
0.409918 0.297823 0.000000
-0.094943 0.497711 0.000000
0.506686 -0.000000 0.000000
-0.215736 0.458463 0.000000
-0.156575 0.481887 0.000000
0.031815 0.505686 0.000000
0.369358 -0.346850 0.000000
0.409918 -0.297823 0.000000
0.471105 0.186524 0.000000
0.322974 0.390408 0.000000
0.271496 0.427809 0.000000
-0.369358 0.346850 0.000000
-0.322974 0.390408 0.000000
0.215736 0.458463 0.000000
0.156575 -0.481887 0.000000
-0.322974 -0.390408 0.000000
0.271496 -0.427809 0.000000
-0.490768 -0.126008 0.000000
0.156575 0.481887 0.000000
-0.031815 -0.505686 0.000000
0.094943 0.497711 0.000000
-0.506686 0.000000 0.000000
0.444012 -0.244098 0.000000
-0.490768 0.126008 0.000000
-0.444012 -0.244098 0.000000
0.094943 -0.497711 0.000000
0.490768 0.126008 0.000000
-0.502691 0.063505 0.000000
0.215736 -0.458463 0.000000
0.031815 -0.505686 0.000000
0.471105 -0.186524 0.000000
-0.471105 -0.186524 0.000000
0.502691 -0.063505 0.000000
-0.215736 -0.458463 0.000000
-0.094943 -0.497711 0.000000
-0.409918 -0.297823 0.000000
-0.471105 0.186524 0.000000
0.502691 0.063505 0.000000
-0.156575 -0.481887 0.000000
0.490768 -0.126008 0.000000
-0.369358 -0.346850 0.000000
-0.444012 0.244098 0.000000
-0.409918 0.297823 0.000000
-0.271496 -0.427809 0.000000
-0.031952 0.507855 0.000000
0.445917 0.245145 0.000000
-0.272661 0.429644 0.000000
0.370943 0.348338 0.000000
-0.504847 -0.063777 0.000000
0.324359 -0.392083 0.000000
0.411676 0.299100 0.000000
-0.095351 0.499846 0.000000
0.508859 -0.000000 0.000000
-0.216662 0.460430 0.000000
-0.157246 0.483954 0.000000
0.031952 0.507855 0.000000
0.370943 -0.348338 0.000000
0.411676 -0.299100 0.000000
0.324359 0.392083 0.000000
0.473126 0.187324 0.000000
0.272661 0.429644 0.000000
-0.370943 0.348338 0.000000
-0.324359 0.392083 0.000000
0.216662 0.460430 0.000000
0.157246 -0.483954 0.000000
-0.324359 -0.392083 0.000000
0.272661 -0.429644 0.000000
0.157246 0.483954 0.000000
-0.492873 -0.126548 0.000000
-0.031952 -0.507855 0.000000
0.095351 0.499846 0.000000
0.445917 -0.245145 0.000000
-0.508859 0.000000 0.000000
-0.492873 0.126548 0.000000
-0.445917 -0.245145 0.000000
0.095351 -0.499846 0.000000
-0.504847 0.063777 0.000000
0.216662 -0.460430 0.000000
0.492873 0.126548 0.000000
0.031952 -0.507855 0.000000
0.473126 -0.187324 0.000000
-0.473126 -0.187324 0.000000
0.504847 -0.063777 0.000000
-0.216662 -0.460430 0.000000
-0.095351 -0.499846 0.000000
-0.473126 0.187324 0.000000
-0.411676 -0.299100 0.000000
-0.157246 -0.483954 0.000000
0.504847 0.063777 0.000000
0.492873 -0.126548 0.000000
-0.370943 -0.348338 0.000000
-0.445917 0.245145 0.000000
-0.411676 0.299100 0.000000
-0.272661 -0.429644 0.000000
0.318712 0.385257 0.100000
-0.318712 0.385257 0.100000
[...]
POINT_DATA 5000
SCALARS pressure float 1
LOOKUP_TABLE default
101808.967657
101808.967657
101808.967657
101808.967657
101808.967657
101808.967657
101808.967657
101808.967657
101808.967657
101808.967657
101808.967657
101808.967657
101808.967657
101808.967657
101808.967657
101808.967657
101325.000000
101325.000000
101325.000000
101325.000000
101325.000000
101325.000000
101325.000000
101325.000000
101325.000000
101325.000000
101325.000000
101325.000000
101325.000000
101325.000000
101325.000000
101325.000000
101325.000000
101325.000000
101325.000000
101325.000000
101325.000000
101325.000000
101325.000000
101325.000000
101325.000000
101325.000000
101325.000000
101325.000000
101325.000000
101325.000000
101325.000000
101325.000000
101325.000000
101325.000000
101323.554644
101324.663225
101323.965542
101324.320019
101324.977206
101324.138509
101324.498665
101323.599873
101325.000000
101323.811986
101323.687489
101323.554644
101324.803356
101324.138509
101324.320019
101324.498665
101324.320019
101324.138509
101323.965542
101323.811986
101324.138509
101323.687489
101324.910256
101323.687489
101323.965542
101323.599873
101323.554644
101325.000000
101324.663225
101324.663225
101323.599873
101324.910256
101324.910256
101324.977206
101323.811986
101323.554644
101324.977206
101324.803356
101324.803356
101323.811986
101323.599873
101324.498665
101324.977206
101324.910256
101323.687489
101324.320019
101324.803356
101324.663225
101324.498665
101323.965542
101321.888795
101324.275073
101322.773275
101323.536304
101324.950934
101323.145595
101323.920850
101321.986152
101325.000000
101322.442737
101322.174750
101321.888795
101324.576714
101323.536304
101323.920850
101323.145595
101323.536304
101323.145595
101322.773275
101322.442737
101323.145595
101322.174750
101324.806821
101322.174750
101322.773275
101321.986152
101321.888795
101325.000000
101324.275073
101324.275073
101321.986152
101324.806821
101324.806821
101324.950934
101322.442737
101321.888795
101324.576714
101324.950934
101324.576714
101322.442737
101321.986152
101323.920850
101324.950934
101322.174750
101324.806821
101323.536304
101324.576714
101324.275073
101323.920850
101322.773275
101319.926399
101323.817824
101321.368766
101322.613076
101324.919986
101321.975928
101323.240176
101320.085165
101325.000000
101320.829740
101320.392720
101319.926399
101324.309726
101322.613076
101323.240176
101321.975928
101321.368766
101322.613076
101321.975928
101320.829740
101321.975928
101320.392720
101324.684973
101320.392720
101321.368766
101319.926399
101320.085165
101325.000000
101323.817824
101323.817824
101324.684973
101320.085165
101324.684973
101324.919986
101320.829740
101319.926399
101324.309726
101324.919986
101324.309726
101320.829740
101320.085165
101323.240176
101324.919986
101320.392720
101324.684973
101324.309726
101322.613076
101323.817824
101323.240176
101321.368766
101317.613312
101323.278863
101319.713263
101321.524862
101324.883508
101320.597234
101322.437860
101317.844460
101325.000000
101318.928492
101318.292232
101317.613312
101323.995026
101321.524862
101322.437860
101320.597234
101319.713263
101321.524862
101320.597234
101318.928492
101320.597234
101318.292232
101319.713263
101324.541350
101318.292232
101317.613312
101317.844460
101325.000000
101323.278863
101323.278863
101324.541350
101317.844460
101324.541350
101324.883508
101318.928492
101317.613312
101323.995026
101324.883508
101323.995026
101318.928492
101317.844460
101322.437860
101323.995026
101324.883508
101318.292232
101324.541350
101321.524862
101323.278863
101322.437860
101319.713263
101314.889412
101322.644180
101317.763736
101320.243377
101324.840550
101318.973679
101321.493051
101315.205797
101325.000000
101316.689575
101315.818688
101314.889412
101320.243377
101321.493051
101323.624433
101318.973679
101317.763736
101320.243377
101318.973679
101316.689575
101315.818688
101318.973679
101317.763736
101324.372219
101315.818688
101314.889412
101315.205797
101325.000000
101322.644180
101324.372219
101322.644180
101315.205797
101324.372219
101324.840550
101316.689575
101314.889412
101323.624433
101323.624433
101324.840550
101316.689575
101315.205797
101321.493051
101323.624433
101324.840550
101315.818688
101324.372219
101320.243377
101322.644180
101321.493051
101317.763736
101311.688305
101321.898305
101315.472667
101318.737385
101324.790067
101317.065689
101320.382718
101312.104861
101325.000000
101314.058417
101312.911799
101311.688305
101318.737385
101320.382718
101317.065689
101323.188916
101315.472667
101318.737385
101317.065689
101314.058417
101312.911799
101317.065689
101315.472667
101312.911799
101324.173457
101311.688305
101312.104861
101321.898305
101325.000000
101324.173457
101321.898305
101312.104861
101324.790067
101314.058417
101324.173457
101311.688305
101323.188916
101323.188916
101324.790067
101314.058417
101312.104861
101323.188916
101320.382718
101312.911799
101324.790067
101324.173457
101318.737385
101321.898305
101320.382718
101315.472667
101808.967657
101808.967657
101808.967657
101808.967657
101808.967657
101808.967657
101808.967657
101808.967657
101808.967657
101808.967657
101808.967657
101808.967657
101808.967657
101808.967657
101808.967657
101808.967657
101325.000000
101325.000000
101325.000000
101325.000000
101325.000000
101325.000000
101325.000000
101325.000000
101325.000000
101325.000000
101325.000000
101325.000000
101325.000000
101325.000000
101325.000000
101325.000000
101325.000000
101325.000000
101325.000000
101325.000000
101325.000000
101325.000000
101325.000000
101325.000000
101325.000000
101325.000000
101325.000000
101325.000000
101325.000000
101325.000000
101325.000000
101325.000000
101325.000000
101325.000000
101323.554644
101324.663225
101323.599873
101324.498665
101324.498665
101323.687489
101324.320019
101323.687489
101323.965542
101323.811986
101323.965542
101324.138509
101324.663225
101323.554644
101324.977206
101323.687489
101324.320019
101324.803356
101324.910256
101323.811986
101324.138509
101323.599873
101324.138509
101323.965542
101324.910256
101324.663225
101325.000000
101323.811986
101324.910256
101323.599873
101323.811986
101324.803356
101324.803356
101325.000000
101324.977206
101324.320019
101323.554644
101323.554644
101324.138509
101324.977206
101324.663225
101324.803356
101324.498665
101324.977206
101323.687489
101323.599873
101323.965542
101324.910256
101324.320019
101324.498665
101307.936623
101321.024143
101316.972371
101312.787546
101324.730900
101314.829534
101319.081413
101308.470578
101325.000000
101310.974712
101309.504939
101307.936623
101316.972371
101319.081413
101314.829534
101322.678492
101312.787546
101310.974712
101316.972371
101314.829534
101309.504939
101314.829534
101312.787546
101309.504939
101323.940510
101307.936623
101308.470578
101321.024143
101325.000000
101323.940510
101321.024143
101308.470578
101310.974712
101324.730900
101323.940510
101307.936623
101322.678492
101322.678492
101324.730900
101310.974712
101322.678492
101308.470578
101319.081413
101309.504939
101324.730900
101323.940510
101316.972370
101321.024143
101319.081413
101312.787546
101321.888795
101324.275073
101321.986152
101323.920850
101323.920850
101323.536304
101322.174750
101322.174750
101322.773275
101322.442737
101322.773275
101323.145595
101324.275073
101321.888795
101324.950934
101322.174750
101323.536304
101324.576714
101324.806821
101322.442737
101323.145595
101321.986152
101323.145595
101322.773275
101324.806821
101324.275073
101322.442737
101325.000000
101324.806821
101321.986152
101322.442737
101324.576714
101324.576714
101324.950934
101325.000000
101323.536304
101321.888795
101321.888795
101323.145595
101324.950934
101324.275073
101324.576714
101323.920850
101324.950934
101322.174750
101321.986152
101322.773275
101324.806821
101323.536304
101323.920850
101319.926399
101323.817824
101320.085165
101323.240176
101323.240176
101322.613076
101320.392720
101320.392720
101321.368766
101320.829740
101321.368766
101321.975928
101323.817824
101324.919986
101319.926399
101320.392720
101322.613076
101324.684973
101324.309726
101320.829740
101321.975928
101320.085165
101321.975928
101321.368766
101324.684973
101323.817824
101320.829740
101325.000000
101324.684973
101320.085165
101320.829740
101324.309726
101324.309726
101324.919986
101325.000000
101322.613076
101319.926399
101319.926399
101321.975928
101324.919986
101323.817824
101324.309726
101323.240176
101324.919986
101320.392720
101320.085165
101321.368766
101324.684973
101322.613076
101323.240176
101303.549995
101320.002036
101314.908639
101309.647986
101324.661721
101312.214925
101317.559872
101304.221219
101325.000000
101307.369111
101305.521491
101303.549995
101317.559872
101314.908639
101312.214925
101322.081682
101309.647986
101307.369111
101314.908639
101312.214925
101305.521491
101309.647986
101312.214925
101305.521491
101323.668138
101303.549995
101320.002036
101304.221219
101325.000000
101323.668138
101320.002036
101304.221219
101307.369111
101324.661721
101323.668138
101303.549995
101322.081682
101322.081682
101324.661721
101307.369111
101322.081682
101304.221219
101317.559872
101305.521491
101324.661721
101320.002036
101323.668138
101314.908639
101309.647986
101317.559872
101317.613312
101323.278863
101317.844460
101322.437860
101322.437860
101321.524862
101318.292232
101318.292232
101319.713263
101319.713263
101318.928492
101320.597234
101323.278863
101324.883508
101317.613312
101318.292232
101321.524862
101324.541350
101323.995026
101318.928492
101320.597234
101317.844460
101320.597234
101319.713263
101324.541350
101323.278863
101318.928492
101325.000000
101324.541350
101317.844460
101318.928492
101323.995026
101323.995026
101324.883508
101325.000000
101321.524862
101317.613312
101317.613312
101320.597234
101324.883508
101323.278863
101323.995026
101322.437860
101324.883508
101318.292232
101317.844460
101319.713263
101324.541350
101321.524862
101322.437860
101314.889412
101322.644180
101321.493051
101315.205797
101321.493051
101320.243377
101315.818688
101315.818688
101317.763736
101317.763736
101316.689575
101318.973679
101322.644180
101324.840550
101315.818688
101314.889412
101320.243377
101324.372219
101316.689575
101323.624433
101318.973679
101315.205797
101317.763736
101318.973679
101324.372219
101322.644180
101316.689575
101325.000000
101315.205797
101324.372219
101316.689575
101323.624433
101323.624433
101324.840550
101325.000000
101320.243377
101314.889412
101314.889412
101318.973679
101324.840550
101322.644180
101323.624433
101321.493051
101315.818688
101315.205797
101324.840550
101317.763736
101324.372219
101320.243377
101321.493051
101298.430327
101318.809126
101312.500042
101305.983781
101324.580980
101309.163395
101315.784068
101299.261758
101325.000000
101303.160986
101300.872378
101298.430327
101315.784068
101312.500042
101309.163395
101305.983781
101321.385140
101303.160986
101312.500042
101309.163395
101300.872378
101305.983781
101309.163395
101300.872378
101323.350250
101298.430327
101318.809126
101299.261758
101325.000000
101323.350250
101299.261758
101318.809126
101303.160986
101324.580980
101323.350250
101298.430327
101321.385140
101321.385140
101321.385140
101303.160986
101324.580980
101299.261758
101300.872378
101315.784068
101324.580980
101318.809126
101323.350250
101312.500042
101305.983781
101315.784068
101311.688305
101321.898305
101320.382718
101312.104861
101320.382718
101318.737385
101312.911799
101312.911799
101315.472667
101315.472667
101314.058417
101317.065689
101321.898305
101324.790067
101312.911799
101311.688305
101318.737385
101324.173457
101314.058417
101323.188916
101317.065689
101315.472667
101312.104861
101317.065689
101324.173457
101321.898305
101314.058417
101325.000000
101312.104861
101324.173457
101314.058417
101323.188916
101323.188916
101324.790067
101325.000000
101318.737385
101311.688305
101311.688305
101317.065689
101323.188916
101321.898305
101324.790067
101320.382718
101312.911799
101312.104861
101315.472667
101324.790067
101324.173457
101318.737385
101320.382718
101307.936623
101321.024143
101319.081413
101319.081413
101316.972371
101308.470578
101309.504939
101309.504939
101312.787546
101312.787546
101310.974712
101314.829534
101321.024143
101324.730900
101309.504939
101307.936623
101316.972371
101323.940510
101310.974712
101322.678492
101314.829534
101312.787546
101308.470578
101323.940510
101321.024143
101314.829534
101310.974712
101308.470578
101325.000000
101310.974712
101323.940510
101322.678492
101322.678492
101324.730900
101325.000000
101307.936623
101316.972371
101307.936623
101314.829534
101322.678492
101321.024143
101324.730900
101319.081413
101309.504939
101308.470578
101312.787546
101324.730900
101323.940510
101316.972370
101319.081413
101292.491594
101317.425370
101309.706108
101301.733361
101324.487323
101305.623669
101313.724165
101293.508862
101325.000000
101298.279629
101295.479481
101292.491593
101313.724165
101309.706108
101305.623669
101301.733361
101298.279629
101320.577163
101295.479481
101309.706108
101305.623669
101301.733361
101295.479481
101305.623669
101322.981505
101317.425370
101292.491593
101293.508862
101325.000000
101322.981505
101293.508862
101317.425370
101298.279628
101324.487323
101322.981505
101292.491593
101320.577163
101320.577163
101320.577163
101298.279628
101324.487323
101293.508862
101295.479481
101313.724165
101317.425370
101324.487323
101322.981505
101309.706108
101301.733361
101313.724165
101303.549995
101320.002036
101317.559872
101317.559872
101314.908639
101305.521491
101304.221219
101305.521491
101309.647986
101309.647986
101312.214925
101307.369111
101320.002036
101305.521491
101324.661721
101303.549995
101314.908639
101323.668138
101307.369111
101322.081682
101312.214925
101309.647986
101304.221219
101320.002036
101323.668138
101312.214925
101307.369111
101304.221219
101307.369111
101325.000000
101323.668138
101322.081682
101322.081682
101324.661721
101325.000000
101303.549995
101303.549995
101314.908639
101322.081682
101312.214925
101320.002036
101324.661721
101317.559872
101305.521491
101304.221219
101309.647986
101323.668138
101324.661721
101314.908639
101317.559872
101285.636194
101315.828026
101306.480920
101296.826874
101324.379209
101301.537572
101311.346308
101286.867985
101325.000000
101289.254170
101292.644815
101285.636194
101311.346308
101306.480920
101301.537572
101296.826874
101292.644815
101319.644472
101289.254170
101296.826874
101306.480920
101301.537572
101289.254170
101322.555844
101315.828026
101301.537572
101285.636194
101286.867985
101322.555844
101325.000000
101286.867985
101315.828026
101292.644815
101324.379209
101285.636194
101322.555844
101319.644472
101319.644472
101319.644472
101292.644815
101286.867985
101324.379209
101289.254170
101311.346308
101315.828026
101324.379209
101322.555844
101306.480920
101296.826873
101311.346308
101298.430327
101318.809126
101315.784068
101315.784068
101312.500042
101300.872378
101299.261758
101300.872378
101305.983781
101305.983781
101309.163395
101303.160986
101318.809126
101300.872378
101324.580980
101312.500042
101323.350250
101298.430327
101303.160986
101321.385140
101309.163395
101305.983781
101318.809126
101299.261758
101323.350250
101303.160986
101309.163395
101303.160986
101299.261758
101325.000000
101323.350250
101321.385140
101321.385140
101324.580980
101325.000000
101298.430327
101298.430327
101312.500042
101321.385140
101309.163395
101318.809126
101324.580980
101300.872378
101315.784068
101299.261758
101305.983781
101323.350250
101324.580980
101312.500042
101315.784068
101292.491593
101317.425370
101313.724165
101295.479481
101309.706108
101313.724165
101293.508862
101295.479481
101301.733361
101301.733361
101305.623669
101317.425370
101298.279629
101295.479481
101324.487323
101309.706108
101322.981505
101292.491593
101298.279629
101305.623669
101301.733361
101320.577163
101317.425370
101293.508862
101322.981505
101298.279629
101298.279629
101305.623669
101293.508862
101325.000000
101322.981505
101320.577163
101320.577163
101324.487323
101292.491593
101292.491593
101325.000000
101320.577163
101309.706108
101305.623669
101317.425370
101324.487323
101295.479481
101301.733361
101293.508862
101313.724165
101322.981505
101324.487323
101309.706108
101313.724165
101277.760124
101313.992860
101302.775547
101291.189880
101296.843114
101324.254999
101308.614422
101279.238377
101325.000000
101282.101999
101286.171058
101308.614422
101277.760124
101302.775547
101296.843114
101286.171058
101291.189880
101318.572916
101282.101999
101291.189880
101282.101999
101302.775547
101313.992860
101296.843114
101322.066807
101277.760124
101296.843114
101279.238377
101322.066807
101325.000000
101279.238377
101313.992860
101286.171058
101324.254999
101277.760124
101322.066807
101318.572916
101318.572916
101318.572916
101286.171058
101279.238377
101282.101999
101324.254999
101313.992860
101308.614422
101324.254999
101322.066807
101291.189880
101302.775547
101308.614421
101285.636194
101315.828026
101311.346308
101289.254170
101306.480920
101311.346308
101286.867985
101289.254170
101296.826874
101296.826874
101301.537572
101315.828026
101289.254170
101292.644815
101324.379209
101322.555844
101306.480920
101292.644815
101285.636194
101296.826874
101301.537572
101315.828026
101319.644472
101292.644815
101322.555844
101292.644815
101286.867985
101301.537572
101286.867985
101319.644472
101319.644472
101325.000000
101322.555844
101324.379209
101285.636194
101285.636194
101319.644472
101325.000000
101306.480920
101315.828026
101301.537572
101324.379209
101289.254170
101296.826874
101286.867985
101311.346308
101322.555844
101324.379209
101306.480920
101311.346308
101268.738681
101311.890817
101298.531323
101284.733130
101291.465968
101324.112725
101305.485253
101270.499238
101325.000000
101305.485253
101298.531323
101273.909728
101278.755859
101268.738681
101278.755859
101291.465968
101284.733130
101273.909728
101284.733130
101317.345530
101311.890817
101273.909728
101321.506652
101298.531323
101291.465968
101268.738681
101291.465968
101321.506652
101270.499237
101325.000000
101270.499237
101311.890817
101278.755859
101324.112725
101317.345530
101268.738681
101317.345530
101321.506652
101278.755859
101317.345530
101270.499237
101273.909728
101324.112725
101311.890817
101305.485253
101324.112725
101284.733130
101321.506652
101298.531323
101305.485253
101277.760124
101313.992860
101308.614422
101282.101999
101302.775547
101308.614422
101279.238377
101291.189880
101282.101999
101296.843114
101291.189880
101313.992860
101282.101999
101322.066807
101324.254999
101302.775547
101286.171058
101286.171058
101277.760124
101291.189880
101296.843114
101286.171058
101313.992860
101286.171058
101322.066807
101318.572916
101279.238377
101279.238377
101296.843114
101318.572916
101318.572916
101322.066807
101325.000000
101324.254999
101318.572916
101277.760124
101277.760124
101325.000000
101313.992860
101302.775547
101296.843114
101282.101999
101324.254999
101291.189880
101279.238377
101308.614422
101322.066807
101324.254999
101302.775547
101308.614421
101258.522488
101309.510390
101293.725016
101277.421283
101285.376701
101323.951610
101301.941673
101260.602734
101325.000000
101301.941673
101293.725016
101270.358631
101285.376701
101277.421283
101264.632517
101258.522487
101270.358631
101264.632517
101277.421283
101309.510390
101264.632517
101315.955595
101320.872314
101258.522487
101293.725016
101285.376701
101285.376701
101320.872314
101260.602734
101325.000000
101260.602734
101309.510390
101270.358631
101315.955595
101323.951610
101258.522487
101270.358631
101315.955595
101320.872314
101315.955595
101264.632517
101260.602734
101309.510390
101323.951610
101301.941673
101277.421283
101323.951610
101320.872314
101293.725016
101301.941673
101268.738681
101305.485253
101311.890817
101273.909728
101298.531323
101305.485253
101270.499238
101284.733130
101291.465968
101273.909728
101311.890817
101284.733130
101273.909728
101321.506652
101298.531323
101324.112725
101278.755859
101278.755859
101268.738681
101278.755859
101284.733130
101291.465968
101311.890817
101278.755859