# Force and moment coefficients
# dragDir       : (1.00000000e+00 0.00000000e+00 0.00000000e+00)
# sideDir       : (0.00000000e+00 0.00000000e+00 -1.00000000e+00)
# liftDir       : (0.00000000e+00 1.00000000e+00 0.00000000e+00)
# rollAxis      : (1.00000000e+00 0.00000000e+00 0.00000000e+00)
# pitchAxis     : (0.00000000e+00 0.00000000e+00 -1.00000000e+00)
# yawAxis       : (0.00000000e+00 1.00000000e+00 0.00000000e+00)
# magUInf       : 5.00000000e+01
# lRef          : 1.00000000e+00
# Aref          : 1.00000000e+00
# CofR          : (2.50000000e-01 0.00000000e+00 0.00000000e+00)
#
# Time          	Cd              	Cd(f)           	Cd(r)           	Cl              	Cl(f)           	Cl(r)           	CmPitch         	CmRoll          	CmYaw           	Cs              	Cs(f)           	Cs(r)           
1               	2.01330966e-02	1.00664034e-02	1.00666932e-02	-3.57591639e-04	-1.11748931e-05	-3.46416745e-04	1.67620926e-04	-1.44925276e-07	1.03316216e-07	-1.79660289e-09	1.02417915e-07	-1.04214517e-07
2               	2.59943730e-02	1.29950745e-02	1.29992985e-02	-8.79119997e-04	-6.60669048e-05	-8.13053093e-04	3.73493094e-04	-2.11197771e-06	1.45439976e-07	-1.69835251e-09	1.44590799e-07	-1.46289152e-07
3               	2.64061876e-02	1.31991753e-02	1.32070124e-02	-8.76241885e-04	3.70844940e-05	-9.13326379e-04	4.75205436e-04	-3.91855667e-06	5.11059755e-07	-2.52020031e-09	5.09799655e-07	-5.12319856e-07
4               	2.39936350e-02	1.19913632e-02	1.20022718e-02	-6.34996774e-04	2.10935807e-04	-8.45932581e-04	5.28434194e-04	-5.45433679e-06	1.19816475e-06	5.74289033e-10	1.19845190e-06	-1.19787761e-06
5               	2.02027553e-02	1.00949370e-02	1.01078182e-02	-4.40624742e-04	3.71625090e-04	-8.12249832e-04	5.91937461e-04	-6.44058846e-06	1.82659429e-06	6.96953081e-09	1.83007906e-06	-1.82310953e-06
6               	1.60274088e-02	8.00779840e-03	8.01961044e-03	-5.32807381e-04	4.51721853e-04	-9.84529234e-04	7.18125543e-04	-5.90601963e-06	2.15084555e-06	1.13779704e-08	2.15653453e-06	-2.14515656e-06
7               	1.21184775e-02	6.05604249e-03	6.06243502e-03	-9.69694680e-04	4.33081401e-04	-1.40277608e-03	9.17928741e-04	-3.19626251e-06	2.09205936e-06	1.17143123e-08	2.09791651e-06	-2.08620220e-06
8               	8.81939703e-03	4.41060805e-03	4.40878899e-03	-1.60246357e-03	3.49873238e-04	-1.95233681e-03	1.15110502e-03	9.09531226e-07	1.72779747e-06	1.19469727e-08	1.73377096e-06	-1.72182398e-06
9               	6.24231588e-03	3.12618894e-03	3.11612694e-03	-2.23473662e-03	2.37060585e-04	-2.47179720e-03	1.35442889e-03	5.03099907e-06	1.17036033e-06	9.66265787e-09	1.17519166e-06	-1.16552900e-06
10              	4.36176343e-03	2.18896390e-03	2.17279953e-03	-2.81798024e-03	1.07742052e-04	-2.92572229e-03	1.51673217e-03	8.08218788e-06	4.99321701e-07	5.08956523e-09	5.01866484e-07	-4.96776919e-07
11              	3.08452783e-03	1.55178382e-03	1.53274401e-03	-3.35140519e-03	-2.38886841e-05	-3.32751651e-03	1.65181391e-03	9.51990703e-06	-1.74275410e-07	2.18305481e-09	-1.73183883e-07	1.75366938e-07
12              	2.31674482e-03	1.16757072e-03	1.14917410e-03	-3.85180438e-03	-1.50287155e-04	-3.70151722e-03	1.77561503e-03	9.19830636e-06	-7.43151589e-07	1.33389974e-09	-7.42484640e-07	7.43818539e-07
13              	2.00212239e-03	1.00833394e-03	9.93788450e-04	-4.30593723e-03	-2.66400440e-04	-4.03953679e-03	1.88656818e-03	7.27274428e-06	-1.15795822e-06	7.98307337e-10	-1.15755906e-06	1.15835737e-06
14              	2.04954046e-03	1.02902876e-03	1.02051170e-03	-4.72088944e-03	-3.75914454e-04	-4.34497499e-03	1.98453027e-03	4.25853177e-06	-1.39331866e-06	6.22575513e-10	-1.39300737e-06	1.39362995e-06
15              	2.36232262e-03	1.18197363e-03	1.18034898e-03	-5.09958052e-03	-4.82107805e-04	-4.61747271e-03	2.06768245e-03	8.12324776e-07	-1.45785686e-06	4.32395496e-10	-1.45764066e-06	1.45807306e-06
16              	2.83303455e-03	1.41414441e-03	1.41889015e-03	-5.41827051e-03	-5.84802536e-04	-4.83346797e-03	2.12433272e-03	-2.37287085e-06	-1.37846903e-06	1.89729595e-10	-1.37837417e-06	1.37856390e-06
17              	3.35231179e-03	1.67143146e-03	1.68088033e-03	-5.67812505e-03	-6.86500049e-04	-4.99162500e-03	2.15256248e-03	-4.72443579e-06	-1.19771497e-06	-1.32674131e-10	-1.19778130e-06	1.19764863e-06
18              	3.83854139e-03	1.91333032e-03	1.92521108e-03	-5.90543828e-03	-7.89436690e-04	-5.11600159e-03	2.16328245e-03	-5.94038118e-06	-9.63337661e-07	-5.00065847e-10	-9.63587694e-07	9.63087628e-07
19              	4.24531323e-03	2.11664732e-03	2.12866592e-03	-6.11922570e-03	-8.91821382e-04	-5.22740431e-03	2.16779147e-03	-6.00929781e-06	-7.16176070e-07	-8.15594199e-10	-7.16583867e-07	7.15768273e-07
20              	4.55680576e-03	2.27326356e-03	2.28354220e-03	-6.32836003e-03	-9.90715514e-04	-5.33764452e-03	2.17346450e-03	-5.13932226e-06	-4.84866231e-07	-9.96081073e-10	-4.85364272e-07	4.84368191e-07
21              	4.77656601e-03	2.38462676e-03	2.39193925e-03	-6.53204217e-03	-1.08344697e-03	-5.44859520e-03	2.18257412e-03	-3.65624504e-06	-2.86879524e-07	-1.06701249e-09	-2.87413030e-07	2.86346018e-07
22              	4.92021779e-03	2.45820588e-03	2.46201191e-03	-6.72925263e-03	-1.16931137e-03	-5.55994127e-03	2.19531495e-03	-1.90301769e-06	-1.29952448e-07	-8.36122168e-10	-1.30370509e-07	1.29534386e-07
23              	5.00587653e-03	2.50276456e-03	2.50311197e-03	-6.91590702e-03	-1.24819945e-03	-5.66770756e-03	2.20975405e-03	-1.73703135e-07	-1.38527382e-08	-6.28306671e-10	-1.41668916e-08	1.35385849e-08
24              	5.04620577e-03	2.52439868e-03	2.52180709e-03	-7.08726581e-03	-1.31934875e-03	-5.76791706e-03	2.22428416e-03	1.29579874e-06	6.66360211e-08	-3.98877688e-10	6.64365823e-08	-6.68354600e-08
25              	5.05056852e-03	2.52761733e-03	2.52295118e-03	-7.24368323e-03	-1.38154508e-03	-5.86213815e-03	2.24029653e-03	2.33307610e-06	1.17460707e-07	-1.98745763e-10	1.17361334e-07	-1.17560080e-07
26              	5.03100625e-03	2.51837903e-03	2.51262722e-03	-7.38919770e-03	-1.43457923e-03	-5.95461847e-03	2.26001962e-03	2.87590261e-06	1.44096946e-07	-3.99856021e-11	1.44076953e-07	-1.44116939e-07
27              	5.00020095e-03	2.50308606e-03	2.49711489e-03	-7.52221232e-03	-1.47911241e-03	-6.04309991e-03	2.28199375e-03	2.98558246e-06	1.52467071e-07	8.62024928e-11	1.52510172e-07	-1.52423970e-07
28              	4.96624268e-03	2.48591331e-03	2.48032937e-03	-7.63946079e-03	-1.51724139e-03	-6.12221939e-03	2.30248900e-03	2.79196692e-06	1.49550908e-07	2.15632792e-10	1.49658724e-07	-1.49443091e-07
29              	4.93180582e-03	2.46832362e-03	2.46348220e-03	-7.74278088e-03	-1.55172365e-03	-6.19105723e-03	2.31966679e-03	2.42070923e-06	1.41335799e-07	3.31189986e-10	1.41501394e-07	-1.41170204e-07
30              	4.89725065e-03	2.45059805e-03	2.44665260e-03	-7.83597763e-03	-1.58466321e-03	-6.25131442e-03	2.33332561e-03	1.97272665e-06	1.31605506e-07	4.18507653e-10	1.31814760e-07	-1.31396252e-07
31              	4.86234936e-03	2.43269497e-03	2.42965439e-03	-7.92261842e-03	-1.61743822e-03	-6.30518020e-03	2.34387099e-03	1.52029040e-06	1.22257961e-07	5.13792156e-10	1.22514857e-07	-1.22001065e-07
32              	4.82704841e-03	2.41463119e-03	2.41241722e-03	-8.00521389e-03	-1.65087029e-03	-6.35434360e-03	2.35173665e-03	1.10698532e-06	1.13759557e-07	6.41049554e-10	1.14080082e-07	-1.13439032e-07
33              	4.79210621e-03	2.39680563e-03	2.39530058e-03	-8.08498725e-03	-1.68535479e-03	-6.39963246e-03	2.35713883e-03	7.52525267e-07	1.05467006e-07	7.38449611e-10	1.05836231e-07	-1.05097781e-07
34              	4.76036800e-03	2.38064804e-03	2.37971996e-03	-8.15761310e-03	-1.71958410e-03	-6.43802900e-03	2.35922245e-03	4.64041207e-07	9.58878152e-08	8.29556014e-10	9.63025932e-08	-9.54730371e-08
35              	4.73508296e-03	2.36777856e-03	2.36730440e-03	-8.21648325e-03	-1.75117923e-03	-6.46530402e-03	2.35706240e-03	2.37078953e-07	8.40946948e-08	9.17517602e-10	8.45534536e-08	-8.36359360e-08
36              	4.71748477e-03	2.35879950e-03	2.35868527e-03	-8.26009549e-03	-1.77884782e-03	-6.48124766e-03	2.35119992e-03	5.71191483e-08	7.04141488e-08	1.00221144e-09	7.09152545e-08	-6.99130431e-08
37              	4.70700631e-03	2.35341198e-03	2.35359433e-03	-8.29169176e-03	-1.80266721e-03	-6.48902455e-03	2.34317867e-03	-9.11738396e-08	5.57780481e-08	1.11517978e-09	5.63356379e-08	-5.52204582e-08
38              	4.70226766e-03	2.35091708e-03	2.35135058e-03	-8.31608568e-03	-1.82355104e-03	-6.49253463e-03	2.33449179e-03	-2.16752129e-07	4.11366216e-08	1.21639645e-09	4.17448198e-08	-4.05284233e-08
39              	4.70211381e-03	2.35073569e-03	2.35137812e-03	-8.33686769e-03	-1.84231024e-03	-6.49455745e-03	2.32612361e-03	-3.21215212e-07	2.72495644e-08	1.28451912e-09	2.78918240e-08	-2.66073048e-08
40              	4.70576084e-03	2.35247819e-03	2.35328265e-03	-8.35626401e-03	-1.85945902e-03	-6.49680498e-03	2.31867298e-03	-4.02231725e-07	1.46344895e-08	1.33108943e-09	1.53000342e-08	-1.39689448e-08
41              	4.71275036e-03	2.35591825e-03	2.35683210e-03	-8.37574215e-03	-1.87526831e-03	-6.50047384e-03	2.31260277e-03	-4.56925633e-07	3.53214998e-09	1.36283398e-09	4.21356697e-09	-2.85073299e-09
42              	4.72251799e-03	2.36077436e-03	2.36174362e-03	-8.39546409e-03	-1.88928267e-03	-6.50618142e-03	2.30844937e-03	-4.84630666e-07	-5.83644672e-09	1.38151703e-09	-5.14568821e-09	6.52720523e-09
43              	4.73316451e-03	2.36609273e-03	2.36707179e-03	-8.41463742e-03	-1.90050483e-03	-6.51413259e-03	2.30681388e-03	-4.89530316e-07	-1.27111082e-08	1.38573424e-09	-1.20182411e-08	1.34039753e-08
44              	4.74262277e-03	2.37083397e-03	2.37178880e-03	-8.43397335e-03	-1.90913997e-03	-6.52483338e-03	2.30784671e-03	-4.77414676e-07	-1.65853376e-08	1.38323752e-09	-1.58937188e-08	1.72769564e-08
45              	4.74989054e-03	2.37449169e-03	2.37539885e-03	-8.45476102e-03	-1.91617590e-03	-6.53858512e-03	2.31120461e-03	-4.53577795e-07	-1.76240066e-08	1.37515789e-09	-1.69364277e-08	1.83115856e-08
46              	4.75457869e-03	2.37686119e-03	2.37771750e-03	-8.47670938e-03	-1.92235642e-03	-6.55435296e-03	2.31599827e-03	-4.28159215e-07	-1.57700850e-08	1.35948124e-09	-1.50903444e-08	1.64498257e-08
47              	4.75736984e-03	2.37828313e-03	2.37908670e-03	-8.50105339e-03	-1.92849016e-03	-6.57256323e-03	2.32203654e-03	-4.01784791e-07	-1.21671182e-08	1.33789394e-09	-1.14981712e-08	1.28360651e-08
48              	4.75874789e-03	2.37899636e-03	2.37975153e-03	-8.52865760e-03	-1.93510758e-03	-6.59355002e-03	2.32922122e-03	-3.77584981e-07	-7.64391392e-09	1.31739860e-09	-6.98521463e-09	8.30261322e-09
49              	4.75903463e-03	2.37915875e-03	2.37987589e-03	-8.55986604e-03	-1.94249700e-03	-6.61736905e-03	2.33743603e-03	-3.58570446e-07	-2.77541033e-09	1.29134891e-09	-2.12973588e-09	3.42108478e-09
50              	4.75847163e-03	2.37888917e-03	2.37958246e-03	-8.59447420e-03	-1.95075123e-03	-6.64372296e-03	2.34648586e-03	-3.46647349e-07	2.02356889e-09	1.26470199e-09	2.65591988e-09	-1.39121789e-09
51              	4.75727722e-03	2.37829646e-03	2.37898076e-03	-8.63146540e-03	-1.95975022e-03	-6.67171518e-03	2.35598248e-03	-3.42150623e-07	6.42646646e-09	1.23788248e-09	7.04540770e-09	-5.80752522e-09
52              	4.75569825e-03	2.37750548e-03	2.37819278e-03	-8.66892605e-03	-1.96915039e-03	-6.69977565e-03	2.36531263e-03	-3.43648804e-07	1.01556827e-08	1.21157829e-09	1.07614718e-08	-9.54989356e-09
53              	4.75400277e-03	2.37665290e-03	2.37734987e-03	-8.70485168e-03	-1.97853661e-03	-6.72631506e-03	2.37388922e-03	-3.48485795e-07	1.30010616e-08	1.18735311e-09	1.35947382e-08	-1.24073851e-08
54              	4.75239675e-03	2.37584705e-03	2.37654970e-03	-8.73965086e-03	-1.98783290e-03	-6.75181795e-03	2.38199252e-03	-3.51320316e-07	1.46630524e-08	1.16425553e-09	1.52451801e-08	-1.40809246e-08
55              	4.75103321e-03	2.37516510e-03	2.37586811e-03	-8.77295839e-03	-1.99699847e-03	-6.77595993e-03	2.38948073e-03	-3.51501171e-07	1.51637172e-08	1.14765461e-09	1.57375445e-08	-1.45898899e-08
56              	4.74995559e-03	2.37463031e-03	2.37532527e-03	-8.80516431e-03	-2.00609772e-03	-6.79906659e-03	2.39648443e-03	-3.47479749e-07	1.46402063e-08	1.13467837e-09	1.52075454e-08	-1.40728671e-08
57              	4.74915299e-03	2.37423850e-03	2.37491450e-03	-8.83710535e-03	-2.01528200e-03	-6.82182335e-03	2.40327068e-03	-3.37998421e-07	1.32428426e-08	1.12237270e-09	1.38040289e-08	-1.26816562e-08
58              	4.74860824e-03	2.37398187e-03	2.37462637e-03	-8.86959889e-03	-2.02470316e-03	-6.84489572e-03	2.41009628e-03	-3.22252393e-07	1.11091446e-08	1.11045547e-09	1.16643723e-08	-1.05539168e-08
59              	4.74831816e-03	2.37385937e-03	2.37445879e-03	-8.90226882e-03	-2.03425453e-03	-6.86801430e-03	2.41687989e-03	-2.99709316e-07	8.40687424e-09	1.09945902e-09	8.95660375e-09	-7.85714473e-09
60              	4.74825502e-03	2.37385691e-03	2.37439811e-03	-8.93348284e-03	-2.04355249e-03	-6.88993035e-03	2.42318893e-03	-2.70603156e-07	5.39005117e-09	1.08904098e-09	5.93457166e-09	-4.84553068e-09
61              	4.74834403e-03	2.37393551e-03	2.37440853e-03	-8.96203496e-03	-2.05230512e-03	-6.90972983e-03	2.42871235e-03	-2.36508379e-07	2.37550827e-09	1.07964025e-09	2.91532839e-09	-1.83568814e-09
62              	4.74850675e-03	2.37405355e-03	2.37445321e-03	-8.98855026e-03	-2.06063138e-03	-6.92791888e-03	2.43364375e-03	-1.99828932e-07	-3.92611822e-10	1.07117976e-09	1.42978056e-10	9.28201701e-10
63              	4.74869496e-03	2.37418464e-03	2.37451032e-03	-9.01453002e-03	-2.06887099e-03	-6.94565902e-03	2.43839402e-03	-1.62839422e-07	-2.78860421e-09	1.06370351e-09	-2.25675246e-09	3.32045597e-09
64              	4.74888778e-03	2.37431642e-03	2.37457136e-03	-9.04135868e-03	-2.07735748e-03	-6.96400119e-03	2.44332185e-03	-1.27468042e-07	-4.75361241e-09	1.05676421e-09	-4.22523031e-09	5.28199451e-09
65              	4.74907686e-03	2.37444308e-03	2.37463377e-03	-9.07006972e-03	-2.08636664e-03	-6.98370308e-03	2.44866822e-03	-9.53439192e-08	-6.26141432e-09	1.05035261e-09	-5.73623801e-09	6.78659063e-09
66              	4.74925552e-03	2.37455994e-03	2.37469558e-03	-9.10104553e-03	-2.09604331e-03	-7.00500222e-03	2.45447946e-03	-6.78181346e-08	-7.30127747e-09	1.04535303e-09	-6.77860095e-09	7.82395399e-09
67              	4.74941720e-03	2.37466288e-03	2.37475432e-03	-9.13274030e-03	-2.10609255e-03	-7.02664775e-03	2.46027760e-03	-4.57176188e-08	-7.86731663e-09	1.04094500e-09	-7.34684413e-09	8.38778913e-09
68              	4.74957520e-03	2.37475852e-03	2.37481668e-03	-9.16268002e-03	-2.11597145e-03	-7.04670857e-03	2.46536856e-03	-2.90770205e-08	-7.97686460e-09	1.03713101e-09	-7.45829910e-09	8.49543010e-09
69              	4.74976331e-03	2.37486423e-03	2.37489908e-03	-9.18893652e-03	-2.12516474e-03	-7.06377178e-03	2.46930352e-03	-1.74234369e-08	-7.65853973e-09	1.03336856e-09	-7.14185545e-09	8.17522401e-09
70              	4.75000928e-03	2.37499458e-03	2.37501470e-03	-9.21091494e-03	-2.13336318e-03	-7.07755176e-03	2.47209429e-03	-1.00602609e-08	-6.94811461e-09	1.02972917e-09	-6.43325002e-09	7.46297920e-09
71              	4.75030664e-03	2.37514722e-03	2.37515942e-03	-9.23044280e-03	-2.14092991e-03	-7.08951289e-03	2.47429149e-03	-6.10139545e-09	-5.94467383e-09	1.02628362e-09	-5.43153203e-09	6.45781564e-09
72              	4.75063719e-03	2.37531395e-03	2.37532323e-03	-9.24935364e-03	-2.14831089e-03	-7.10104275e-03	2.47636593e-03	-4.63981121e-09	-4.77504729e-09	1.02327392e-09	-4.26341032e-09	5.28668425e-09
73              	4.75098632e-03	2.37548823e-03	2.37549809e-03	-9.26857298e-03	-2.15571798e-03	-7.11285500e-03	2.47856851e-03	-4.92780790e-09	-3.54784503e-09	1.02066964e-09	-3.03751021e-09	4.05817985e-09
74              	4.75134359e-03	2.37566543e-03	2.37567816e-03	-9.28843254e-03	-2.16320528e-03	-7.12522727e-03	2.48101099e-03	-6.36534259e-09	-2.34780606e-09	1.01833508e-09	-1.83863852e-09	2.85697360e-09
75              	4.75169621e-03	2.37583980e-03	2.37585641e-03	-9.30843512e-03	-2.17061155e-03	-7.13782356e-03	2.48360600e-03	-8.30246941e-09	-1.24722694e-09	1.01625033e-09	-7.39101769e-10	1.75535210e-09
76              	4.75201829e-03	2.37599925e-03	2.37601904e-03	-9.32714042e-03	-2.17754803e-03	-7.14959239e-03	2.48602218e-03	-9.89646303e-09	-3.19883873e-10	1.01455437e-09	1.87393313e-10	8.27161060e-10
77              	4.75227830e-03	2.37612867e-03	2.37614963e-03	-9.34353279e-03	-2.18376672e-03	-7.15976607e-03	2.48799968e-03	-1.04837044e-08	3.85377460e-10	1.01316826e-09	8.91961590e-10	1.21206671e-10
78              	4.75245084e-03	2.37621579e-03	2.37623504e-03	-9.35733798e-03	-2.18919795e-03	-7.16814003e-03	2.48947104e-03	-9.62441117e-09	8.44132269e-10	1.01193593e-09	1.35010023e-09	-3.38164306e-10
79              	4.75253051e-03	2.37625806e-03	2.37627245e-03	-9.36883865e-03	-2.19388778e-03	-7.17495087e-03	2.49053155e-03	-7.19651688e-09	1.04428669e-09	1.01092291e-09	1.54974814e-09	-5.38825230e-10
80              	4.75253539e-03	2.37626414e-03	2.37627125e-03	-9.37918082e-03	-2.19815135e-03	-7.18102947e-03	2.49143906e-03	-3.55777367e-09	1.02719223e-09	1.01014732e-09	1.53226589e-09	-5.22118564e-10
81              	4.75248421e-03	2.37624294e-03	2.37624126e-03	-9.38949637e-03	-2.20232673e-03	-7.18716963e-03	2.49242145e-03	8.38634298e-10	8.62638188e-10	1.00971696e-09	1.36749667e-09	-3.57779708e-10
82              	4.75239168e-03	2.37620143e-03	2.37619025e-03	-9.40032245e-03	-2.20657451e-03	-7.19374794e-03	2.49358672e-03	5.58617864e-09	6.10717284e-10	1.00956178e-09	1.11549817e-09	-1.05936396e-10
83              	4.75227639e-03	2.37614854e-03	2.37612785e-03	-9.41132375e-03	-2.21082275e-03	-7.20050100e-03	2.49483913e-03	1.03429648e-08	3.24409672e-10	1.00950306e-09	8.29161201e-10	1.80341857e-10
84              	4.75215133e-03	2.37609032e-03	2.37606101e-03	-9.42221417e-03	-2.21498264e-03	-7.20723153e-03	2.49612444e-03	1.46537740e-08	3.84220535e-11	1.00949890e-09	5.43171506e-10	4.66327398e-10
85              	4.75203373e-03	2.37603509e-03	2.37599864e-03	-9.43245070e-03	-2.21891444e-03	-7.21353626e-03	2.49731091e-03	1.82247573e-08	-2.22270357e-10	1.00926708e-09	2.82363181e-10	7.26903895e-10
86              	4.75194100e-03	2.37599143e-03	2.37594956e-03	-9.44158891e-03	-2.22250721e-03	-7.21908170e-03	2.49828725e-03	2.09351716e-08	-4.48201054e-10	1.00892386e-09	5.62608765e-11	9.52662985e-10
87              	4.75188434e-03	2.37596494e-03	2.37591940e-03	-9.44949410e-03	-2.22572363e-03	-7.22377047e-03	2.49902342e-03	2.27722870e-08	-6.34712155e-10	1.00853739e-09	-1.30443458e-10	1.13898085e-09
88              	4.75186501e-03	2.37595629e-03	2.37590872e-03	-9.45635866e-03	-2.22860815e-03	-7.22775051e-03	2.49957118e-03	2.37825150e-08	-7.71803326e-10	1.00816405e-09	-2.67721301e-10	1.27588535e-09
89              	4.75187667e-03	2.37596239e-03	2.37591428e-03	-9.46256176e-03	-2.23126015e-03	-7.23130161e-03	2.50002073e-03	2.40526829e-08	-8.44175447e-10	1.00777783e-09	-3.40286531e-10	1.34806436e-09
90              	4.75191117e-03	2.37597928e-03	2.37593189e-03	-9.46845227e-03	-2.23377450e-03	-7.23467778e-03	2.50045164e-03	2.36959632e-08	-8.42661185e-10	1.00735469e-09	-3.38983841e-10	1.34633853e-09
91              	4.75196157e-03	2.37600362e-03	2.37595795e-03	-9.47424312e-03	-2.23620742e-03	-7.23803570e-03	2.50091414e-03	2.28359211e-08	-7.69761714e-10	1.00685107e-09	-2.66336178e-10	1.27318725e-09
