/*--------------------------------*- C++ -*----------------------------------*\
| =========                 |                                                 |
| \\      /  F ield         | OpenFOAM: The Open Source CFD Toolbox           |
|  \\    /   O peration     | Version:  2406                                  |
|   \\  /    A nd           | Website:  www.openfoam.com                      |
|    \\/     M anipulation  |                                                 |
\*---------------------------------------------------------------------------*/
FoamFile
{
    version     2.0;
    format      ascii;
    arch        "LSB;label=32;scalar=64";
    class       volScalarField;
    location    "200";
    object      k;
}
// * * * * * * * * * * * * * * * * * * * * * * * * * * * * * * * * * * * * * //

dimensions      [0 2 -2 0 0 0 0];

internalField   nonuniform List<scalar> 
16045
(
0.054641987
0.047149614
0.041531062
0.037168165
0.033704059
0.03071327
0.02803521
0.025763855
0.023540871
0.021977909
0.020489547
0.01983102
0.018330353
0.017892817
0.017434864
0.019305922
0.046246284
0.25004742
1.2613808
5.8781386
24.028185
84.283633
231.96755
451.54067
645.9184
762.45535
856.03011
970.87801
1103.6829
1263.4054
1431.1509
1630.9084
1793.2321
1729.0562
1301.2865
841.34374
557.27734
499.91985
618.87562
871.26879
948.22101
897.17177
773.54061
619.22112
469.60083
361.79712
206.58671
87.833582
52.804088
44.348009
41.030786
38.281169
35.120286
31.505552
29.643731
29.589358
34.171739
36.299722
12.775987
3.9130622
2.9102532
2.7567231
2.6169461
2.5831424
2.740092
2.7158048
2.3640097
2.2127116
2.0653777
1.944172
1.8098668
1.7242569
1.5899888
1.4438133
1.3064857
1.1518286
0.99787736
0.92050916
0.86671684
0.87055096
0.86560446
0.85517215
0.84920126
0.80162016
0.800909
0.79176641
0.79430795
0.82297103
0.82862366
0.77171926
0.78461169
0.75154893
0.73948422
0.7326966
0.71268263
0.69239024
0.66649334
0.63752171
0.61005169
0.59664171
0.054557678
0.047261651
0.0414163
0.037302854
0.033642759
0.030837358
0.028038897
0.025912334
0.023668541
0.022183058
0.020986369
0.019281979
0.019274799
0.019075215
0.019495599
0.030652546
0.14145755
0.83455571
4.2022687
17.935436
61.667379
173.24832
326.06122
521.58173
718.43711
841.98683
912.99621
992.57828
1091.9265
1226.6233
1374.7347
1503.965
1556.9013
1482.7561
1176.3652
851.89593
545.35088
491.89898
543.12408
811.71416
919.29376
905.28218
803.6149
657.13365
500.24689
402.24481
266.26544
120.3856
62.921028
49.398171
44.352519
40.975476
36.869884
32.948233
30.287375
30.165611
33.678809
30.709652
10.081083
5.6711049
3.996058
3.619348
3.4687445
3.4394067
3.5203296
3.4740564
3.0395745
2.8913482
2.6786574
2.512793
2.3800323
2.2297682
2.120782
1.9640709
1.8192153
1.6179097
1.4316722
1.2539709
1.0955432
1.0322019
1.0095182
0.98554984
0.98386683
0.97234674
0.96978965
0.97423022
0.99905322
0.96893976
1.0080901
1.0087639
0.98942011
0.98684313
0.9382205
0.92628549
0.9156798
0.89913673
0.87917939
0.852924
0.82956724
0.81504078
0.054664912
0.047160217
0.041487181
0.037247332
0.033695241
0.030771321
0.028068421
0.02591828
0.023522197
0.022393986
0.020660316
0.019338453
0.019394376
0.018978415
0.020636361
0.051426302
0.33772007
2.0215478
9.4375593
34.737356
101.4661
225.97161
369.80212
548.11154
739.56131
883.40899
965.06596
1023.7951
1091.7982
1184.6721
1286.9398
1357.0673
1385.8068
1342.5819
1147.3241
815.42691
592.10659
496.99855
504.04892
693.16816
867.21238
907.93821
836.68417
691.2167
524.06497
407.87043
305.6865
183.02931
102.40369
66.187009
52.401454
45.859192
41.477187
33.106817
30.23554
30.307679
31.931791
23.905731
12.203341
5.0390428
4.1502211
3.8580681
3.9679204
3.9120262
3.4320566
3.3502382
3.1867057
3.0368971
2.8486664
2.7501947
2.6019211
2.4126684
2.3121404
2.1540505
2.0149719
1.8079636
1.6122043
1.4164351
1.2004836
1.1173592
1.0635598
1.04384
1.0309441
1.0270147
1.0291403
1.0502622
1.0566987
1.0482007
1.0719114
1.070227
1.0681047
1.0518182
1.0458469
1.0173148
0.98336348
0.97357674
0.95751566
0.93677115
0.91561986
0.90565796
0.054756458
0.047017809
0.041567613
0.037079981
0.033742446
0.030661484
0.02804561
0.025820656
0.02340913
0.022172659
0.020515768
0.019277999
0.019480944
0.019706986
0.024607426
0.10485664
0.79986949
4.7650902
21.195429
70.629527
176.27604
296.31835
422.75691
566.08468
731.66876
872.52829
966.30333
1025.9743
1078.1006
1140.2998
1201.3314
1242.4697
1252.7136
1239.8199
1080.6187
813.32415
596.3188
477.81316
474.64541
605.73143
796.5027
884.66936
848.72911
733.15652
563.7373
397.6174
302.94271
197.74027
115.44205
81.572016
64.44854
55.66503
41.98987
32.577996
29.496186
30.220358
31.186672
26.174354
14.145091
5.7385714
4.8958501
4.8317876
5.0696703
5.0876671
4.5131862
4.2392361
3.9487896
3.6323769
3.4757528
3.3174911
3.1878216
3.0248813
2.8570994
2.7223584
2.5071023
2.3478785
2.0649931
1.8358135
1.5376867
1.3640777
1.2599504
1.2174027
1.1967169
1.1851222
1.1855654
1.2065982
1.21449
1.2209925
1.2369071
1.2338962
1.2412712
1.1880067
1.1904779
1.1637733
1.1550751
1.1341162
1.1224295
1.1000548
1.0797287
1.0685631
0.054743206
0.047061888
0.041594187
0.037063441
0.033710987
0.030644949
0.027996808
0.025728359
0.023450001
0.022132886
0.020593878
0.019328774
0.019421465
0.02022879
0.03183733
0.21841803
1.814874
10.804593
45.293068
138.70594
256.80562
368.34011
477.27635
589.12028
719.59123
839.01095
931.5156
993.89743
1039.0883
1084.0446
1120.5742
1140.7141
1142.3163
1130.636
1039.9614
810.74515
606.38086
497.42093
463.0433
536.84641
699.12069
824.453
839.68048
766.03006
596.25444
399.42734
281.73451
182.87991
107.05088
77.164499
71.001771
55.888611
40.4736
31.149817
29.074536
31.236997
33.235247
29.923023
13.966028
5.8976647
5.2154226
5.1847905
5.2550769
5.140764
5.0574221
4.5677998
4.2778377
4.0878766
3.8186539
3.692887
3.5512112
3.3811373
3.2339474
3.076446
2.8894248
2.6955992
2.4372073
2.1722243
1.8579896
1.5871243
1.3915774
1.3182333
1.2810115
1.264895
1.2605654
1.2808614
1.27827
1.306591
1.3105352
1.3198039
1.3165946
1.288763
1.2681424
1.2512073
1.2305948
1.2150861
1.200912
1.1833344
1.1640232
1.1547685
0.054613595
0.04721066
0.0414698
0.037172958
0.033636278
0.030558259
0.028123387
0.025454359
0.023720341
0.022185056
0.020111399
0.020357488
0.020095822
0.021504037
0.047701808
0.46116637
3.962913
22.862321
90.40577
221.07461
336.52587
439.48416
534.05764
622.82964
720.92935
816.75629
895.14743
951.72532
992.02321
1026.97
1050.5751
1053.2785
1055.6187
1047.1613
954.18749
741.23383
581.60066
469.22717
459.25782
483.06876
608.32534
747.05549
816.98457
777.3388
625.73657
408.00337
252.91862
151.94601
92.186576
77.033129
67.665592
52.673007
36.829957
30.536678
29.958307
35.238878
36.601459
29.167081
12.925726
5.7977456
5.5310486
5.483176
5.622277
5.2235798
5.6435541
5.2464771
5.1467516
5.0588601
4.6170551
4.4656964
4.3335181
4.1502461
3.9927986
3.8402202
3.6079395
3.3488398
3.031252
2.6893177
2.3507104
2.0119556
1.72314
1.5680378
1.5002556
1.4655518
1.447488
1.446652
1.4727252
1.4801887
1.4620394
1.4936807
1.4548344
1.4783859
1.4714832
1.4457075
1.4163305
1.4027628
1.3560367
1.3399502
1.3206357
1.3099171
0.054616839
0.047263017
0.041367404
0.037187144
0.033526761
0.030519756
0.028057755
0.025284546
0.023954797
0.022027545
0.020257875
0.020741819
0.020723376
0.022551684
0.079288989
1.0001635
8.5355827
45.036092
161.57688
295.52767
407.7644
504.11359
587.96513
661.91196
734.69227
810.48479
873.71937
920.17095
953.38035
979.55725
988.27205
994.78903
992.01851
980.2858
899.13914
717.88284
549.66397
483.83118
462.52489
467.42832
547.01207
674.46442
776.36073
773.10541
646.95315
412.96194
231.04179
122.61219
78.945992
68.869569
60.012311
43.667447
33.74527
30.813088
33.663049
38.381574
37.291183
26.584507
9.2489203
5.5462602
5.5397917
5.236873
5.575816
5.6797061
5.6799149
5.5763932
5.8276943
6.0236242
6.3467202
5.9469589
6.0280605
5.6299538
5.3688703
5.1022152
4.8215348
4.4132368
3.9157725
3.4513049
2.960011
2.5381107
2.164617
1.9171377
1.7950763
1.7315593
1.6944281
1.6670205
1.6511427
1.6903725
1.684923
1.6953007
1.6334895
1.6137822
1.6256597
1.5775205
1.5709392
1.542129
1.5060482
1.4821622
1.4603565
1.4463342
0.05469899
0.047140371
0.041410932
0.037169431
0.033467667
0.030496984
0.028008139
0.025252475
0.023955301
0.022021965
0.020494485
0.021129457
0.021641614
0.024122418
0.15456865
2.2080658
17.438413
82.226065
233.49904
363.99008
472.41751
563.53117
639.13373
702.44931
760.80475
817.71164
867.81101
904.23945
929.06852
943.28469
947.03574
949.67428
947.62806
932.87449
854.51162
699.86638
550.46925
470.00941
461.64221
457.98502
492.05505
601.87808
733.45339
763.19399
658.31063
415.96449
219.30877
106.111
69.889861
58.691656
47.358405
36.649798
32.562905
32.347423
37.67233
39.306112
35.310767
19.023112
6.9851547
5.6268282
5.2134082
5.4855944
5.4555262
5.7618173
6.2138576
6.8412873
7.5931053
8.2718282
8.9503812
9.564786
10.082289
10.176586
8.566097
8.1822839
7.6480236
6.88169
5.9567994
5.0701565
4.2335977
3.5468722
2.9674853
2.6091626
2.4129206
2.3098689
2.2366
2.1784585
2.1259018
2.0739055
2.0366261
2.0064021
1.9770238
1.9538993
1.9232799
1.9033642
1.8687773
1.8436352
1.8026515
1.7648044
1.7283025
1.7092522
0.054807159
0.0470648
0.041468215
0.037063415
0.033413904
0.030438533
0.027931778
0.025269546
0.023859878
0.021965141
0.020506924
0.021292153
0.022607569
0.028156562
0.34501578
4.8401554
33.423719
139.44923
297.27054
423.9117
527.43581
613.64264
685.46004
742.8038
792.22614
838.35646
875.78376
902.45813
917.27968
924.33583
925.6434
926.18283
921.06357
900.20829
815.62881
668.00469
548.89925
487.57261
462.68153
461.6614
477.54824
552.91685
697.78806
756.46997
660.54784
408.8792
195.3906
92.477686
61.673425
48.75714
38.308785
32.755794
31.551012
34.084906
37.611021
37.46078
28.137619
12.860003
6.2760019
5.5867244
5.5085744
5.5465484
6.0166546
6.5287733
7.6416088
9.2041883
11.144561
13.153836
14.955498
16.439181
17.498474
18.178994
17.669916
14.744543
13.903126
12.376307
10.755175
8.8610226
7.1813064
5.7686737
4.6376047
3.8743514
3.5110567
3.3039799
3.1711214
3.0626861
2.9837907
2.8978198
2.8285547
2.7598137
2.6818883
2.6087247
2.5367531
2.4756796
2.4117775
2.343608
2.2704494
2.1987155
2.1300394
2.100885
0.054779291
0.047076305
0.041493145
0.037082852
0.033302458
0.030632812
0.027599944
0.02571275
0.023921114
0.021539176
0.021237217
0.021670413
0.023870833
0.039026166
0.80677909
10.155174
59.829435
202.48394
356.15146
474.4711
574.2696
656.66968
726.80237
781.80788
827.8819
868.24471
897.81513
915.57078
922.56525
926.12319
925.41711
923.05825
913.17803
883.40758
794.15985
654.28278
526.2517
471.06491
460.10483
466.56259
482.67261
533.37817
680.06776
747.98476
653.68501
398.89648
171.67051
82.244933
54.896503
41.914085
32.818238
30.398814
30.417512
33.00937
35.066587
31.780145
22.512575
11.038314
6.0913622
5.77099
5.9949099
6.1818141
6.69733
7.9975496
10.372396
13.824363
17.909915
21.913364
25.202961
27.997489
30.01201
30.967056
31.37354
27.177087
25.558215
23.669583
20.808781
17.500919
14.227077
11.286412
8.8676425
7.0426344
6.0185318
5.4723989
5.1558786
4.925204
4.784312
4.6441796
4.4735974
4.3205445
4.1463622
3.9841452
3.8218183
3.6648053
3.5374392
3.3832312
3.2362708
3.0835941
2.9688326
2.8957433
0.05479952
0.047118186
0.041522431
0.037057758
0.033261439
0.03067846
0.027398751
0.025874179
0.023627065
0.021725918
0.021678976
0.022584212
0.024736915
0.039069569
1.6113176
18.429109
96.862629
262.75373
402.18202
510.90549
592.99829
670.47889
755.2373
811.6195
861.00617
902.92781
932.60427
947.4723
950.8475
948.02344
942.69098
934.24546
917.15363
876.93117
783.17958
648.17647
531.65992
496.67425
495.39354
491.03398
498.0442
550.00265
672.74975
734.11684
639.10543
385.42097
163.89541
75.22498
49.852915
36.393036
30.452366
28.869739
29.169947
30.654691
30.909682
25.828313
17.099642
8.1738119
6.5255685
6.4985843
6.4605095
6.9545438
8.141642
10.913461
15.594358
21.783647
28.281507
34.106204
38.743979
42.858373
45.923962
47.940645
48.926298
48.800575
43.496832
41.410501
38.214387
33.480447
28.440833
23.328849
18.724932
14.809457
12.144044
10.577289
9.7499015
9.1618342
8.7562962
8.3833073
7.9637056
7.573
7.1819975
6.7946368
6.4445846
6.0880721
5.7870735
5.4663218
5.1519048
4.8353237
4.575996
4.4423624
0.05474774
0.047132927
0.041542715
0.036981829
0.033247673
0.030600357
0.027375063
0.025954522
0.023646516
0.021950705
0.022487284
0.021925121
0.026622793
0.053590565
2.7565467
29.498318
140.92251
283.362
422.95474
515.20488
615.60826
696.62294
762.94704
830.77779
889.6055
935.97147
974.09697
994.22249
997.16056
989.34792
977.18911
958.41773
934.80563
880.73869
789.83171
654.40836
559.05838
537.87941
537.76734
527.04208
533.03974
575.4437
674.43648
715.20936
612.97561
343.69714
143.75387
71.121712
48.545462
35.191813
29.383193
27.905875
27.946987
28.401606
27.36936
23.337096
16.093098
9.0815449
7.6951652
7.33527
7.3727167
8.7014866
11.073893
16.220499
23.47293
32.89717
41.193953
48.19305
53.978434
59.163651
63.25464
66.408125
68.492367
69.873028
69.279634
63.938452
61.370174
56.77119
50.775638
44.307041
37.506072
31.072866
25.620594
21.71783
19.334764
17.917332
16.945988
16.096436
15.251876
14.32819
13.504326
12.627888
11.890687
11.115172
10.453519
9.7699988
9.1189898
8.4699481
7.8714246
7.6333796
0.05476599
0.047165973
0.041549344
0.036861223
0.033219274
0.030482669
0.027314086
0.02589107
0.023679727
0.021838997
0.022922247
0.022098484
0.024922278
0.10938714
2.3287114
32.339224
141.11271
298.0159
423.32322
534.51841
615.21104
690.86091
757.97864
825.38846
895.31611
957.6135
1012.5827
1044.4669
1051.841
1045.3391
1028.6279
1002.8902
971.9674
909.93182
805.54131
674.87123
597.99767
590.55821
580.26977
573.33282
575.16064
595.78143
673.76464
689.29245
565.78674
296.7536
126.47448
67.469868
48.110817
35.394524
28.923847
27.063906
26.762062
26.570479
25.130678
20.713333
14.364096
10.892168
9.3540636
8.3869617
9.0403605
11.221594
15.684991
23.505332
34.122541
45.831354
55.353479
62.976373
69.624653
75.537962
80.476113
84.584594
87.74956
89.927898
91.114281
91.619792
86.742814
83.836932
78.153178
72.228595
64.773761
57.228002
49.586484
43.065602
38.016114
34.668362
32.47605
30.685564
29.075981
27.25866
25.59628
23.888824
22.37757
20.887878
19.5225
18.169559
16.859307
15.596008
14.420096
13.910224
0.054735096
0.047187174
0.041540087
0.036842495
0.033211068
0.030452985
0.027376812
0.025835563
0.023760166
0.021845696
0.022672988
0.022446533
0.02529033
0.19351187
2.3644092
36.400013
152.40735
290.33394
435.15497
529.32424
620.6904
688.31609
752.06618
811.16182
876.91015
949.6391
1024.7881
1080.2572
1102.3369
1103.6203
1091.6046
1068.6322
1030.2569
958.83219
834.89309
721.90893
663.00101
660.66526
637.3785
603.42608
600.62263
605.87913
661.90365
653.01631
503.50108
251.50061
112.44094
64.803353
47.032195
33.168025
27.93882
26.566505
26.246622
25.786427
24.29422
20.435693
15.337098
12.164836
10.212078
9.8159032
11.023995
15.084549
21.807773
32.704425
46.296573
59.648729
69.816283
77.765208
85.02464
91.341259
96.904181
101.74797
105.87753
109.28473
111.91425
113.50644
114.3993
110.63846
106.45977
101.89118
95.7011
88.930368
81.381549
73.997747
67.192182
61.725537
57.594389
54.487036
51.70118
48.857294
45.980114
43.142278
40.482066
37.93484
35.518046
33.126574
30.771277
28.48895
26.399323
25.398078
0.054780826
0.04721318
0.041490932
0.036830489
0.033150902
0.030395668
0.027376501
0.025897853
0.023640116
0.02181913
0.022581826
0.022408227
0.026758513
0.15195329
4.2570202
32.715706
147.41308
281.58905
425.35616
524.02375
598.33107
652.74946
705.44867
761.41172
818.86628
893.6478
994.55381
1067.6627
1121.9904
1141.6469
1147.1633
1135.2067
1096.2339
1010.3802
889.25939
785.94171
727.01468
704.54735
664.06338
619.60308
599.9359
599.44098
636.85954
605.82858
434.05702
209.38411
99.956682
61.684457
44.569297
34.926278
28.239572
26.417185
26.009834
25.520292
23.875553
19.545432
16.151031
13.192865
11.792178
11.91119
14.407367
19.907824
28.997883
42.777561
59.131501
73.697695
84.047205
92.292743
99.796459
106.32613
112.26818
117.66493
122.57574
126.96141
130.69787
133.56955
135.28718
136.08041
133.09409
129.39843
125.26445
120.04695
114.20997
107.88365
101.54986
95.637618
90.422889
86.039669
82.190602
78.462954
74.60091
70.711003
66.912488
63.248337
59.675875
56.119162
52.484888
48.988926
45.468446
43.944431
0.054763186
0.047195095
0.041450629
0.036801618
0.03308899
0.030383526
0.027355671
0.025925508
0.023735698
0.022281295
0.02257664
0.023467155
0.027214869
0.16356224
5.0928842
34.30185
134.56633
270.36264
403.09175
487.11907
542.23514
585.24705
627.88097
677.03457
732.1735
796.85712
889.79921
982.63245
1072.9452
1122.3425
1153.3614
1148.4908
1110.3939
1022.0817
911.12156
811.52416
748.26812
709.31848
652.85374
610.83727
584.90364
579.11259
600.90732
546.78378
364.52279
172.38711
88.377552
59.081613
44.580798
33.96981
28.19085
26.029658
25.837342
25.321956
23.784586
19.998785
16.071541
13.885654
12.629883
13.309259
16.689281
23.830881
35.843993
53.38433
72.386393
87.615685
98.02281
106.4552
113.93133
120.4854
126.54715
132.27611
137.71604
142.83267
147.476
151.39379
154.31858
156.01517
156.62613
154.18844
151.03284
147.50191
143.38612
138.72313
133.8115
128.95642
124.25421
119.83806
115.67203
111.61254
107.48595
103.20282
98.859519
94.531626
90.20151
85.785564
81.17788
76.533553
71.97434
69.674955
0.054800087
0.047211479
0.041416702
0.036815657
0.03297321
0.030261497
0.027417031
0.026128244
0.023250433
0.022306779
0.022762083
0.023210739
0.02588056
0.2759222
4.5591926
35.580203
146.78931
253.58574
344.66192
415.69261
462.74014
495.83683
528.32761
566.46488
610.84273
662.30952
726.64633
819.57077
917.59497
993.7587
1050.5932
1051.9555
1010.1158
927.98841
834.87744
752.89782
692.30933
643.80661
598.63207
577.72373
549.66648
545.00323
556.28304
480.92124
298.21425
140.90035
78.256856
56.242973
45.609649
34.401848
29.155536
26.230691
25.557272
24.891142
23.183099
20.094082
16.246806
14.602146
14.139861
16.092924
21.320866
31.077227
45.51321
65.464709
85.659633
101.32558
111.79189
120.26568
127.56016
133.92769
139.8792
145.68413
151.38713
156.96825
162.26003
167.03583
170.99004
173.84068
175.36053
175.58406
173.53743
170.91697
168.07106
164.70742
161.10597
157.50873
153.92129
150.36639
146.83084
143.20903
139.47342
135.56187
131.47271
127.22389
122.83016
118.24896
113.32041
108.27099
102.76418
100.23184
0.05478179
0.047202104
0.041418813
0.036797984
0.032977952
0.030257952
0.027410548
0.026024682
0.024439014
0.022094381
0.022077883
0.023245954
0.027603873
0.12691
4.5615156
36.412483
122.67225
194.74822
260.12665
320.86091
366.1493
397.93756
421.65933
446.82277
476.39145
509.07296
548.66737
600.31027
671.07519
740.28465
798.21745
800.63698
752.94088
686.8913
624.93433
570.59139
531.67827
508.24843
508.05799
518.14601
497.79373
505.23671
505.2824
413.8856
238.48817
115.24425
69.305238
52.872275
44.460375
35.386086
28.34355
25.957201
25.519892
24.89489
23.474303
20.473514
16.905118
15.382729
15.201968
18.006858
24.551612
36.235125
53.579812
76.544389
98.993051
114.95724
125.50683
133.93008
140.94158
146.92838
152.56425
158.16949
163.84931
169.60618
175.29877
180.71468
185.48789
189.26692
191.82737
192.97957
192.82546
191.06417
189.077
186.63227
183.88475
181.13144
178.45307
175.87683
173.29505
170.57908
167.65787
164.54159
161.19926
157.60573
153.75379
149.60741
145.05869
140.20857
134.82709
132.14563
0.05484473
0.047200422
0.041420929
0.036753486
0.032997722
0.030147253
0.027637947
0.025616655
0.024866669
0.022413294
0.022714696
0.023712116
0.026771347
0.26725416
3.2165754
28.036808
101.39239
141.18279
180.0469
225.60459
268.86196
299.92971
317.8758
333.2331
349.92406
365.67762
382.46799
399.88584
417.06506
434.59076
458.9532
451.82871
411.38374
376.18837
352.86245
335.88086
334.75536
364.82625
405.28568
440.67289
444.82213
466.70437
452.21621
348.55601
187.08318
93.998768
60.93316
48.76582
41.939071
34.621228
28.563716
25.907016
25.059293
24.448904
23.259278
20.830575
17.186334
16.50246
17.670425
23.525778
33.221527
48.277156
67.024976
89.78874
111.81015
128.55696
139.27927
147.70423
154.33741
159.82128
164.94979
170.10202
175.46754
181.12148
186.95473
192.75628
198.13085
202.67161
206.11917
208.18218
208.82167
208.40739
207.16425
205.44153
203.34355
201.15406
199.03614
197.08717
195.23034
193.36284
191.36516
189.18529
186.7685
184.05359
181.04096
177.70865
173.9508
169.8526
164.95061
162.55458
0.054830804
0.047159901
0.041399309
0.036688857
0.032979306
0.030099523
0.027587681
0.025863185
0.02431734
0.022558216
0.022999832
0.022668792
0.026140378
0.16480553
3.6779145
31.188454
70.191662
89.347758
111.67477
143.00236
178.28819
207.95475
224.20575
235.14188
246.00181
250.36446
252.43818
251.36968
242.48195
230.60522
223.22801
213.734
202.33902
195.04314
189.6758
193.13518
220.29622
264.56728
336.18949
378.92163
404.65056
429.01819
398.39286
285.42898
144.95572
77.054841
53.507225
44.267494
38.630256
32.653033
27.474322
25.152594
24.322737
23.741433
22.802539
20.848395
17.610188
17.305261
19.175811
23.339014
32.774129
48.566376
73.611528
99.367597
124.28997
141.90489
153.29868
161.78415
168.09185
173.00063
177.50603
181.98192
186.71931
191.93662
197.59515
203.51489
209.26098
214.39228
218.58387
221.55351
222.95905
223.24358
222.89224
221.81329
220.28892
218.53423
216.80987
215.26538
213.89757
212.62048
211.30777
209.87171
208.25818
206.40623
204.28964
201.87613
199.0713
195.90634
191.97088
189.89546
0.054903751
0.047115182
0.041468224
0.036596312
0.032939461
0.029988698
0.027491346
0.025650904
0.024714757
0.022590085
0.023111763
0.023081836
0.026343578
0.11985394
3.5660776
31.956242
46.962884
55.523585
66.377215
83.336218
107.04385
131.8732
147.34158
157.54138
166.77693
168.38968
166.40298
157.91932
145.93016
139.42581
142.14473
145.75219
145.62236
142.3596
145.86677
158.45766
183.41528
234.00751
298.10378
343.34864
377.59377
392.28765
345.87302
229.03782
112.56958
62.924697
46.275874
40.056054
35.3425
30.58462
26.503388
24.329082
23.435975
22.922085
22.025373
20.311322
17.812099
17.350698
18.665284
22.741788
32.772008
54.115624
82.100193
111.55805
136.29599
154.93903
167.50967
176.34828
182.45654
186.79197
190.63542
194.33115
198.15786
202.55187
207.68268
213.42479
219.2755
224.8045
229.61283
233.32817
235.63013
236.46953
236.60721
236.28705
235.33432
233.98398
232.56282
231.28135
230.24135
229.37183
228.56191
227.68687
226.68049
225.47648
224.05721
222.41444
220.4816
218.24734
215.32328
213.67864
0.054870581
0.047113142
0.04146614
0.036598815
0.032911854
0.029980963
0.027502951
0.025622687
0.024869365
0.022797617
0.023109957
0.023161867
0.026465501
0.12104282
4.5937328
18.648269
28.84434
30.958697
36.011962
47.424677
61.949226
79.36306
92.911113
101.46329
111.62455
113.9254
113.21588
111.7519
109.8945
110.76333
114.29026
118.21504
120.36837
128.76416
142.61558
162.93855
190.39523
233.04826
286.29055
328.40208
353.41439
356.36476
295.35839
178.45673
88.417768
54.118575
42.025462
35.774297
32.123341
28.371287
25.031724
23.285375
22.597108
22.041974
21.199295
19.578626
17.539078
17.025968
17.887065
21.401223
30.647784
49.154146
77.440533
111.50186
144.77171
167.6736
181.8329
191.51981
197.67661
201.70963
204.63951
207.58729
210.32705
213.5211
217.68991
222.93717
228.57468
234.26009
239.50416
243.86876
247.01644
248.60412
249.12625
249.1796
248.90705
248.03287
246.88207
245.79461
244.96231
244.37265
243.92098
243.47181
242.92842
242.22502
241.34224
240.2856
239.02283
237.50469
235.41714
234.19468
0.054904291
0.047141018
0.041432052
0.036589024
0.032859579
0.029963209
0.02752757
0.025538573
0.025082197
0.022685804
0.023110148
0.02262854
0.026781485
0.080720816
4.4749509
10.684503
15.670088
17.226408
23.758131
31.325304
38.039713
48.895598
60.828122
68.597954
77.789521
83.704106
89.06233
93.766972
95.211006
94.925907
95.936077
99.797249
114.64792
134.47515
163.91829
187.62786
206.22409
239.35292
283.75039
316.77523
331.77278
319.71563
247.70155
138.41461
73.082493
47.290532
38.269431
33.024669
29.086709
26.062522
23.875673
22.402386
21.675984
20.986771
20.124196
18.795629
16.871866
16.418466
17.040817
19.882696
27.913749
45.078509
74.317994
115.44473
152.67655
179.59677
195.99429
207.26079
214.29526
217.43057
220.54055
221.73816
223.7607
225.32349
228.10339
232.48894
237.57467
243.12565
248.59142
253.47775
257.33992
259.83561
260.90855
261.22573
261.2296
261.0149
260.22677
259.30862
258.61255
258.21017
258.02234
257.88793
257.6855
257.3745
256.90421
256.28714
255.52016
254.52751
253.05501
252.14795
0.054875352
0.047109882
0.041398811
0.036545517
0.032788363
0.029895513
0.027464944
0.025580992
0.024198223
0.022764699
0.02288753
0.022808371
0.024214545
0.13535416
1.4279885
3.5010442
7.1647259
12.063562
17.598333
22.307969
24.516698
31.615477
43.664694
52.225047
61.311265
70.391503
75.686729
79.06887
79.81324
79.704183
80.968349
92.022935
121.57813
154.66814
191.13081
200.86536
215.25154
245.44192
282.93642
304.4042
310.433
282.39189
203.43402
108.9109
62.652491
46.700583
38.405342
32.769209
28.434126
24.426375
22.610255
21.500699
20.69394
20.115905
19.215831
18.006649
16.223893
15.66461
16.02935
18.23194
25.101487
40.525838
68.648534
109.82622
152.85446
188.81421
209.69597
223.34536
231.93758
235.59263
237.59863
238.12603
239.02035
238.63686
239.53624
242.48271
246.6894
251.73057
257.13237
262.36903
266.83721
270.18361
271.96971
272.78056
273.04897
272.99125
272.87786
272.1714
271.58558
271.33272
271.34241
271.4822
271.46759
271.47959
271.3548
271.05097
270.66196
270.04989
269.01496
268.33342
0.054947172
0.047064156
0.041440769
0.036456349
0.032730659
0.029799983
0.027322634
0.025518811
0.024559598
0.023883024
0.022473338
0.022172591
0.024727961
0.040029205
0.56727194
0.75078409
3.5917195
6.1204155
9.923544
12.257909
11.896397
16.791119
28.731046
38.578999
49.23442
57.677906
61.685086
63.575141
64.484193
65.461178
69.489583
94.34994
133.99728
178.75942
208.45291
214.48844
228.06513
255.3809
279.65553
292.14706
289.39659
246.14657
166.20869
92.276461
60.56672
49.285309
41.160277
34.204887
28.582362
24.272328
21.508998
20.453541
19.752276
19.079614
18.166516
16.889527
15.510994
14.835226
15.086046
16.600487
22.194086
35.472723
61.560836
103.36115
154.14938
195.97122
222.07154
239.01245
250.06982
254.9218
256.46521
257.057
255.87842
253.77482
252.82763
253.50684
256.24582
260.43694
265.41199
270.73161
275.67832
279.7303
282.53083
283.74904
284.61428
284.67497
284.8938
284.57961
284.16283
283.9459
283.99905
284.31652
284.67153
284.94788
285.17323
285.06827
284.99805
284.65816
283.95958
283.44097
0.054909006
0.047067343
0.041422205
0.036449582
0.032761037
0.029696292
0.027315677
0.025550259
0.024493629
0.023622518
0.022492029
0.022685117
0.023482362
0.10911508
0.16767381
0.20964021
1.0806311
1.8720997
3.2402269
2.9195684
2.8379925
5.0463963
15.308988
24.919732
35.628452
44.349946
48.43816
51.60254
54.140678
56.147876
63.72638
97.376963
149.95947
203.10648
224.8722
231.45359
242.72411
262.13759
277.62611
280.50052
267.28503
214.33118
138.59076
83.176754
61.873544
54.037597
45.406161
38.307075
31.855399
26.072224
22.052815
19.574804
18.841916
18.271903
17.390657
15.891879
14.547331
14.067506
14.18213
15.199691
19.385036
30.158842
53.127789
93.463443
147.57694
196.80058
231.7832
253.61248
267.71312
275.09209
277.49435
277.12433
274.82062
270.91086
267.78394
266.28926
266.78659
269.58619
273.70612
278.76836
283.98323
288.68858
292.35731
294.63126
295.55903
295.95413
296.6323
296.42038
296.45336
296.30676
296.30938
296.79835
297.42527
297.96783
298.38521
298.68676
298.89689
298.76928
298.34616
297.96765
0.054951574
0.047092583
0.041402893
0.036423088
0.032806302
0.029571476
0.027245086
0.02548261
0.024310158
0.023731498
0.022513511
0.022545602
0.025296487
0.026057056
0.1023442
0.11457696
0.3226881
0.2119653
0.70484599
0.72891321
0.73725372
1.8873379
8.8977455
16.33487
26.447569
35.811672
40.846103
43.782794
47.2383
50.55061
62.491706
108.33636
168.82016
224.57586
240.28655
245.83551
253.71207
265.41318
270.53929
270.81843
243.50989
186.97776
119.45125
79.18449
64.416649
59.091257
51.34755
44.307143
36.427401
28.557078
22.955265
19.790952
18.065905
17.36782
16.500057
15.508053
14.146307
13.500676
13.559416
14.162859
17.108386
25.381709
44.71611
81.710455
137.12654
195.75071
238.26992
266.00922
283.89333
294.80298
298.94471
298.86963
295.7304
290.26859
284.88135
280.79636
279.04338
279.47666
282.34837
286.69753
291.87492
297.05302
301.51823
304.77458
306.4136
307.27497
308.20993
308.10699
308.3928
308.51069
308.46115
308.99694
309.87207
310.68831
311.3913
311.97292
312.43427
312.61258
312.4426
312.20651
0.054864301
0.047151744
0.041308565
0.036456619
0.032734516
0.029615092
0.02732668
0.025551947
0.024157698
0.023056385
0.021922563
0.022324471
0.02316006
0.027445531
0.029310248
0.053369866
0.085590453
0.086596725
0.31138555
0.38923665
0.3954757
1.3738735
6.488593
11.921146
20.600022
28.513217
33.028117
36.62776
41.117141
45.474351
62.271527
126.03295
187.66653
239.01618
254.2668
257.02984
258.08087
264.63946
264.51373
255.88924
221.03419
166.70155
107.16595
77.749255
66.533821
62.697554
57.17047
51.171687
43.965155
36.374724
28.863492
22.662935
18.099398
16.842666
16.163428
15.159005
14.105244
13.061184
13.047312
13.211367
15.23918
21.41427
36.537452
68.424779
122.28921
187.8957
239.87217
274.78184
297.55811
312.81718
320.17289
321.37619
318.31058
311.69267
304.2898
297.48139
292.76892
291.02273
291.55456
294.73665
299.45649
304.82571
309.97183
314.15212
316.88119
318.00616
319.56453
319.84159
320.04651
320.35368
320.54753
320.84306
322.06915
323.11092
324.13824
325.02322
325.80215
326.22861
326.33281
326.27949
0.054786984
0.047301056
0.041192405
0.036574267
0.032694636
0.029557069
0.027422512
0.025424612
0.024268342
0.023334657
0.022808802
0.021399217
0.022514401
0.023736049
0.025472504
0.054556197
0.060408316
0.070692753
0.17028509
0.16089324
0.22323617
1.2164274
4.2672487
8.3084682
15.589527
22.06108
25.652243
28.997526
33.775305
39.558691
60.010384
129.39774
202.22157
244.31147
264.53157
266.67801
264.47415
261.66376
255.16604
236.68632
198.3819
145.16717
96.256469
75.658709
69.063199
66.334082
62.647221
58.36232
49.757255
41.972856
35.18034