/*--------------------------------*- C++ -*----------------------------------*\
| =========                 |                                                 |
| \\      /  F ield         | OpenFOAM: The Open Source CFD Toolbox           |
|  \\    /   O peration     | Version:  2406                                  |
|   \\  /    A nd           | Website:  www.openfoam.com                      |
|    \\/     M anipulation  |                                                 |
\*---------------------------------------------------------------------------*/
FoamFile
{
    version     2.0;
    format      ascii;
    arch        "LSB;label=32;scalar=64";
    class       volScalarField;
    location    "200";
    object      nut;
}
// * * * * * * * * * * * * * * * * * * * * * * * * * * * * * * * * * * * * * //

dimensions      [0 2 -1 0 0 0 0];

internalField   nonuniform List<scalar> 
16045
(
0.00014853444
0.00014708523
0.00014633766
0.00014611103
0.00014660571
0.0001467214
0.00014599757
0.0001458149
0.00014317004
0.00014355696
0.00014163319
0.00014450185
0.00014068576
0.00014193537
0.00015225657
0.00016161844
0.00034073589
0.0016932956
0.0081390215
0.035829127
0.13146604
0.39852935
0.96949188
1.6938785
2.3030212
2.718729
3.0405296
3.3380318
3.5951204
3.8651325
4.0917804
4.2629152
4.2186813
3.7784688
2.8028402
1.9100101
1.3429231
1.1886867
1.3637545
1.9142981
2.2914745
2.4806931
2.4165937
2.1503996
1.8083835
1.5034126
1.0518905
0.6565715
0.4568329
0.38316141
0.33608118
0.29630845
0.26402686
0.23588989
0.22521037
0.22637837
0.24909357
0.25529588
0.11618897
0.044098567
0.036835322
0.036696893
0.03658025
0.038891718
0.043111
0.044596433
0.040431549
0.038777308
0.036933599
0.035441599
0.033374997
0.03216464
0.029972233
0.027467603
0.025096637
0.022377633
0.019631674
0.018383013
0.017525511
0.017667059
0.017621469
0.017360008
0.017293139
0.016236131
0.016258984
0.016014432
0.016040893
0.016524579
0.016689408
0.015618938
0.015966859
0.015396996
0.01527125
0.015224854
0.01489497
0.014558463
0.014145324
0.013646201
0.013116199
0.012853421
0.00014831005
0.00014744069
0.00014586477
0.00014664415
0.00014630632
0.00014718953
0.00014621787
0.00014633766
0.00014379334
0.00014506763
0.00014446704
0.00013936976
0.00015381311
0.00015890634
0.00015775641
0.00022120383
0.0009276546
0.0051918128
0.024730021
0.095315401
0.2849418
0.72364885
1.2620632
1.8711687
2.4496174
2.8633802
3.1274823
3.3565595
3.5538236
3.7740196
3.9566783
4.0154539
3.8830021
3.501987
2.6748366
1.9388482
1.2995635
1.1576925
1.1943057
1.7362489
2.1243031
2.3941798
2.4084076
2.2051019
1.8675287
1.6077935
1.2144393
0.77561449
0.50582432
0.40742511
0.35080556
0.30851103
0.27067544
0.24215381
0.23138681
0.23184805
0.24533609
0.22806173
0.088858257
0.053782909
0.047430461
0.045214975
0.046184572
0.04965116
0.053418321
0.055161881
0.050405213
0.049267151
0.046655853
0.044651145
0.042784793
0.040520123
0.038891083
0.036278696
0.033858098
0.030356262
0.027117076
0.024041704
0.021310492
0.020355118
0.020015813
0.019592268
0.019529885
0.019233897
0.019235624
0.019248866
0.019622535
0.018961024
0.019763756
0.019674854
0.019270851
0.019144937
0.018238194
0.0181764
0.018025247
0.017782081
0.017496532
0.017157955
0.016820344
0.0165939
0.00014856921
0.00014716273
0.00014608223
0.00014656801
0.00014650523
0.00014702832
0.00014640692
0.00014636003
0.00014290174
0.00014656821
0.00014104853
0.00014176716
0.00015567497
0.00015275079
0.00015714688
0.00034666423
0.0021289838
0.01223107
0.053143912
0.17075361
0.44081167
0.90514848
1.3927746
1.9495397
2.5140798
2.9392074
3.2020715
3.3841879
3.526197
3.6675284
3.7735082
3.7551407
3.6317454
3.3134191
2.6929785
1.8946251
1.3872311
1.1648057
1.1197593
1.4717863
1.9285121
2.2724948
2.3706459
2.2005969
1.8811364
1.6170465
1.3387289
0.9990571
0.69687248
0.4815465
0.38037567
0.32932469
0.29690715
0.24367305
0.23297969
0.23515178
0.23972282
0.19326798
0.10763915
0.053870444
0.05467191
0.052997176
0.057172817
0.059237396
0.053979009
0.054534939
0.053615352
0.052229752
0.049905123
0.048997384
0.046828592
0.04385802
0.042353809
0.039697455
0.037371007
0.033759968
0.030351925
0.026959972
0.023153055
0.021892251
0.021095373
0.02071117
0.020462184
0.02035943
0.02038102
0.020808439
0.02087175
0.020652352
0.021014489
0.020935715
0.020831396
0.020439712
0.020238119
0.019696899
0.019038984
0.018926019
0.018691224
0.018368507
0.018022766
0.017869346
0.00014886846
0.00014668324
0.00014641189
0.0001458922
0.00014666441
0.00014670854
0.00014593095
0.00014642479
0.00014175107
0.0001449419
0.00014008826
0.00014435186
0.00015176882
0.00015171605
0.00017426091
0.00066842693
0.0048428041
0.027103933
0.10623512
0.30449736
0.70080379
1.1239036
1.5468003
2.0048599
2.5074346
2.9220814
3.2046649
3.3775355
3.4835269
3.5665778
3.6034654
3.5700665
3.4420689
3.2236442
2.6196276
1.8876911
1.3816701
1.1069664
1.0662197
1.2931336
1.7324567
2.1103201
2.2586943
2.1779309
1.8663857
1.5418671
1.323293
1.0536875
0.77618395
0.58992414
0.44365868
0.39010012
0.29257814
0.24428014
0.23468125
0.23554698
0.2389126
0.20750901
0.12215714
0.062717091
0.062953964
0.064890486
0.071838904
0.07622924
0.070176503
0.068315936
0.065571159
0.061584373
0.059896987
0.058034863
0.056232818
0.053828268
0.051177091
0.049026613
0.045394093
0.042731696
0.037832742
0.033929816
0.028738788
0.025852677
0.024235148
0.023583079
0.02318499
0.022992049
0.022951149
0.023337997
0.023498142
0.023548387
0.023810447
0.023692424
0.02373378
0.022695844
0.022694653
0.022121918
0.022059824
0.021681542
0.021488729
0.021148841
0.020817566
0.020641235
0.00014884464
0.00014676665
0.00014667066
0.00014572562
0.00014676598
0.00014657989
0.000145756
0.00014534859
0.00014343885
0.00014237545
0.00014330974
0.00014524335
0.00015294101
0.00015401624
0.00021516113
0.0013530222
0.010596153
0.056748937
0.19704119
0.54266931
0.95998378
1.3428874
1.712164
2.0825424
2.5019324
2.8694438
3.1520921
3.3224601
3.4109639
3.4597759
3.4542534
3.389212
3.2622552
3.0572136
2.6067563
1.9208143
1.4096126
1.1476099
1.045807
1.1424233
1.5090102
1.8962397
2.1145693
2.1227776
1.8368465
1.4617056
1.2289341
1.0147311
0.75014866
0.56815666
0.4852188
0.37661089
0.28573701
0.24049021
0.23327903
0.23940659
0.25063638
0.22768868
0.12232378
0.066967869
0.067472598
0.071018995
0.076107006
0.078492942
0.079418835
0.074233452
0.071255946
0.069255421
0.065650314
0.064288403
0.062258266
0.059734253
0.057458466
0.054928343
0.051829126
0.048561769
0.044147634
0.039644729
0.034247635
0.029648733
0.02639297
0.025290482
0.024620007
0.024335813
0.024221211
0.024603531
0.024510495
0.025030946
0.025073636
0.025162523
0.02501049
0.0244444
0.02398517
0.023603352
0.023275896
0.022943197
0.022750051
0.022463119
0.022134243
0.021987485
0.00014848528
0.00014727446
0.00014615311
0.00014611855
0.00014645598
0.00014571094
0.00014684599
0.00014312977
0.00014466213
0.00014311978
0.00013782377
0.00015521962
0.00015351991
0.00015684711
0.0003086459
0.002772822
0.021771035
0.10405506
0.35085332
0.80865752
1.2077114
1.570199
1.9048492
2.2059633
2.5385545
2.857789
3.1160767
3.2693405
3.3435943
3.3699967
3.3401065
3.2340741
3.1296004
2.954706
2.4900164
1.8002874
1.3669836
1.0893105
1.0359526
1.0398877
1.3205048
1.6870947
1.9791086
2.0492426
1.8366216
1.4131337
1.1122105
0.92289635
0.66885033
0.56424634
0.46190872
0.35868499
0.27031563
0.23662315
0.23373073
0.26135443
0.2683154
0.22128004
0.1171841
0.068673831
0.071897661
0.075400463
0.081691753
0.079763857
0.088419336
0.084763874
0.084708236
0.084644009
0.077940158
0.07610343
0.074215341
0.07158358
0.069261332
0.066994108
0.063226476
0.058948149
0.053606962
0.04786299
0.042199787
0.03654378
0.031761532
0.029329262
0.028206529
0.027559895
0.02718795
0.027137794
0.027657168
0.027747284
0.027394666
0.027956674
0.027236161
0.027638559
0.027493466
0.026927285
0.026308078
0.02612188
0.025266443
0.025008594
0.024668282
0.024492564
0.00014840615
0.00014754184
0.00014573447
0.00014634465
0.00014596861
0.00014563415
0.00014602805
0.00014317379
0.00014399008
0.0001439978
0.0001380822
0.00015706402
0.00015380567
0.00015925943
0.00050030614
0.0058249361
0.043087016
0.17970453
0.59674428
1.0607354
1.4535069
1.806569
2.10326
2.3600569
2.6201893
2.9058617
3.1244169
3.2455391
3.3017552
3.3077251
3.2369666
3.15405
3.0436251
2.8740827
2.4573608
1.8106811
1.3118533
1.1313371
1.0602272
1.0262963
1.1965745
1.5114963
1.8379843
1.9779889
1.8432202
1.3872456
1.0494424
0.78384865
0.59759501
0.49929671
0.41524947
0.30607631
0.25574495
0.24138935
0.25240147
0.28026127
0.27138313
0.20698549
0.089886442
0.067297469
0.07280882
0.072679979
0.082027609
0.087234412
0.089589173
0.090141778
0.095457299
0.099913919
0.10544246
0.098404651
0.099870932
0.094247225
0.090658705
0.086853412
0.082611959
0.075974318
0.067831253
0.060159447
0.052036591
0.045078946
0.038968407
0.035003027
0.033046662
0.031896204
0.031195414
0.0306937
0.030401684
0.031058959
0.031069006
0.031291212
0.03015078
0.029743422
0.029992024
0.029086083
0.028912572
0.028373838
0.027719689
0.027396167
0.026996581
0.026765227
0.00014865883
0.00014715632
0.00014584833
0.00014633224
0.00014542158
0.00014560454
0.00014571625
0.00014156837
0.00014483778
0.00014016946
0.00013548908
0.00015628024
0.00015678479
0.00016401231
0.00095443454
0.012321293
0.077717015
0.31559926
0.85241758
1.3062618
1.6947444
2.0132304
2.288736
2.5152746
2.7336497
2.9493771
3.1447738
3.2464822
3.287155
3.2638705
3.1822738
3.0979599
3.0015502
2.827243
2.4364244
1.8333519
1.35521
1.1222358
1.0614054
1.0230669
1.0928253
1.3532824
1.7186903
1.9229438
1.8458911
1.3737508
1.0197164
0.7185538
0.52666252
0.42810335
0.33922917
0.27382567
0.25170711
0.25182723
0.27859462
0.28635798
0.26083345
0.15841244
0.073316998
0.069445104
0.068745298
0.075441178
0.080108103
0.089114754
0.097699853
0.10792713
0.12106932
0.13110249
0.14241628
0.15325322
0.16145633
0.16399208
0.13855541
0.13309459
0.12539061
0.11336149
0.098858478
0.084789886
0.071545807
0.060603258
0.051378925
0.045867069
0.042921574
0.041164199
0.039859563
0.038878195
0.037907011
0.037005862
0.036371005
0.036024457
0.035509334
0.035083908
0.034551896
0.034135841
0.033498511
0.033028189
0.032452647
0.031796879
0.031211411
0.03090008
0.000148997
0.00014681109
0.00014611166
0.00014590083
0.00014517897
0.00014521916
0.00014511807
0.00014132535
0.00014291387
0.00013937926
0.00013571421
0.00015177252
0.00015884155
0.00018578846
0.0020676826
0.025531583
0.1396642
0.5273943
1.0877874
1.5211808
1.8873578
2.1967684
2.4662119
2.6849239
2.870615
3.0433322
3.1995064
3.277298
3.2929404
3.256846
3.1739745
3.1071233
3.0104404
2.8205389
2.4267258
1.8156493
1.3959067
1.1781368
1.0800987
1.0468132
1.0814552
1.2584795
1.6324338
1.8942569
1.8412816
1.3504501
0.94208505
0.63655296
0.46023378
0.36566903
0.29201906
0.25647455
0.24968256
0.26493449
0.28126159
0.27804543
0.22267727
0.11661436
0.068174486
0.069836515
0.071689667
0.075650776
0.089008803
0.10084639
0.11952203
0.1443681
0.17447955
0.20453223
0.23167123
0.25463702
0.2685662
0.27738189
0.26882562
0.22433414
0.21422114
0.19219114
0.16891006
0.14050823
0.11560505
0.094258115
0.077010947
0.065414865
0.060208058
0.056848606
0.054599574
0.052921415
0.051420691
0.049880354
0.04876329
0.047684226
0.046782605
0.045660108
0.044540554
0.043525193
0.04243332
0.041173454
0.039975186
0.038758706
0.037575727
0.037090216
0.00014895324
0.00014681956
0.00014624401
0.00014582378
0.00014463147
0.00014604903
0.00014298408
0.0001434457
0.00014286042
0.00013532671
0.00013741822
0.00015549273
0.00016619473
0.00025323263
0.0047300921
0.050467217
0.24420746
0.76302818
1.3051945
1.7155456
2.0730859
2.3579965
2.5997871
2.8131998
3.0025503
3.169383
3.2828667
3.3492363
3.3408017
3.3038579
3.2333886
3.1820773
3.076569
2.8701047
2.4570758
1.8774044
1.3495888
1.1486447
1.0908001
1.0820582
1.1167668
1.2347964
1.6025711
1.8743331
1.8237679
1.3240565
0.8375566
0.56520659
0.41236003
0.32552536
0.26229601
0.24588789
0.24599593
0.26262424
0.27422191
0.25516527
0.19379787
0.10671109
0.068282977
0.07149043
0.076040631
0.083990954
0.098434908
0.12246454
0.15980694
0.21304136
0.27244084
0.32708919
0.37063111
0.40522644
0.42971986
0.43920012
0.44198991
0.37970776
0.35733632
0.33278231
0.29992776
0.254656
0.21141601
0.17104962
0.13760658
0.11166196
0.097499622
0.089589258
0.084857802
0.081188498
0.078690127
0.076373908
0.074123729
0.071676068
0.069169849
0.066809048
0.064327281
0.061813044
0.059801275
0.057275694
0.054862601
0.052387547
0.050519877
0.049313031
0.00014896988
0.00014693372
0.00014642836
0.00014567064
0.00014458193
0.00014613618
0.00014172525
0.00014424666
0.00014139592
0.00013560748
0.00014612093
0.0001581064
0.00016718775
0.00024605813
0.0093009858
0.087256427
0.39263503
0.99563205
1.490728
1.8695262
2.15349
2.4221593
2.6993346
2.9081884
3.1021847
3.2715665
3.38713
3.4564613
3.443566
3.4005381
3.3434653
3.2811195
3.1659655
2.9252556
2.5153196
1.9202504
1.4010993
1.2438283
1.2026577
1.1701358
1.1757523
1.2976754
1.6054684
1.8566546
1.7969856
1.3235207
0.82412529
0.51028484
0.37757171
0.28825436
0.24955133
0.2396991
0.24361997
0.25553123
0.25807059
0.22163189
0.15576024
0.08218626
0.075243591
0.078474137
0.081847617
0.095203163
0.11770224
0.16399656
0.2343301
0.32217875
0.40682673
0.47918328
0.53338399
0.578466
0.61105072
0.62885531
0.63589284
0.62962336
0.55930644
0.53343448
0.50062285
0.44225441
0.38266908
0.32110635
0.2650951
0.21584422
0.18224577
0.16235327
0.15146129
0.14238794
0.13738975
0.13173013
0.12565632
0.1205071
0.11492225
0.1090685
0.10378017
0.098315311
0.093695051
0.088774055
0.083831359
0.078937487
0.074870172
0.072759036
0.00014880086
0.00014709422
0.00014645322
0.00014537503
0.00014433378
0.00014566845
0.00014141309
0.00014415364
0.00014001903
0.00013703004
0.00014715137
0.00015303587
0.00017917366
0.00033580244
0.015628952
0.13961853
0.56820383
1.0745872
1.5752941
1.8971991
2.2299895
2.5245108
2.7276008
2.9571747
3.1699474
3.3526451
3.4884495
3.5762108
3.5755718
3.5378617
3.4758129
3.4097759
3.2633132
2.9995386
2.5805769
1.9925681
1.5103187
1.3849279
1.3438572
1.3015086
1.2970663
1.3861041
1.6404883
1.8411594
1.7526537
1.2404511
0.75063486
0.48671791
0.36886857
0.28260332
0.24437454
0.23603927
0.24116413
0.24766487
0.24054977
0.20939319
0.15113798
0.092010438
0.086323621
0.086054925
0.091561984
0.11620523
0.15485704
0.23563059
0.33912103
0.46290786
0.56166441
0.64233988
0.70529462
0.75785796
0.79952366
0.82660787
0.84344411
0.8518976
0.83891398
0.77329515
0.74296481
0.69158704
0.62172773
0.55056995
0.47615975
0.40593989
0.34581405
0.30241998
0.2766047
0.26041253
0.24860959
0.23735766
0.2257351
0.21279833
0.20170732
0.18981296
0.1796956
0.16891546
0.15950073
0.14970134
0.14033864
0.13087873
0.12204718
0.11857925
0.00014879464
0.00014723386
0.00014642785
0.00014492927
0.00014432746
0.00014482847
0.00014103586
0.00014343673
0.00014043689
0.00013483069
0.00014971963
0.00015223538
0.00016586779
0.00068010753
0.013128919
0.15201017
0.5736263
1.1429383
1.579407
1.967419
2.2529257
2.4956528
2.7214464
2.9164829
3.151499
3.3626777
3.549312
3.6650875
3.6907012
3.6795475
3.6101253
3.5219128
3.3719478
3.0889126
2.6701953
2.050356
1.6534421
1.5316548
1.4679324
1.441184
1.4341699
1.4682673
1.6784283
1.8196789
1.6710498
1.1438498
0.6997471
0.46983903
0.36781149
0.28840187
0.24371116
0.23651919
0.23747563
0.23959308
0.22841634
0.1913289
0.13746865
0.11085203
0.10322192
0.095616402
0.10893497
0.14553135
0.21049075
0.32866214
0.47313777
0.61569615
0.72320191
0.80670614
0.87598811
0.93387976
0.983407
1.0194909
1.0473225
1.0631546
1.070391
1.0747285
1.014506
0.98125856
0.91241547
0.84580843
0.76338449
0.68184515
0.60280534
0.53833554
0.48949041
0.456623
0.43362283
0.41295071
0.3935329
0.37155573
0.35167536
0.33110103
0.31282721
0.29434649
0.27710948
0.25950145
0.24224727
0.22560644
0.20965042
0.20270435
0.00014876081
0.00014723434
0.00014638839
0.00014477834
0.00014404768
0.00014462457
0.00014091621
0.00014260851
0.00014048391
0.00013521199
0.00014436539
0.00015344287
0.0001667937
0.0011944678
0.013415116
0.17319973
0.62287839
1.1245181
1.6426165
1.9708106
2.3001071
2.5203654
2.7172808
2.8641054
3.0423684
3.2670033
3.4972363
3.6710865
3.74428
3.7558465
3.7144751
3.633802
3.4762812
3.223618
2.7224451
2.1651931
1.8178881
1.7229084
1.648846
1.5552947
1.5366935
1.5348813
1.6968775
1.7822081
1.5584568
1.0487203
0.66192332
0.45860825
0.36645903
0.27250639
0.23763247
0.23887242
0.23765418
0.23814583
0.22594144
0.19269837
0.14862385
0.12421802
0.11162874
0.1097285
0.13254146
0.18554139
0.28197723
0.43802506
0.61835542
0.77634788
0.88409638
0.96694197
1.0412559
1.102447
1.1568868
1.2008453
1.2384077
1.2676
1.2902812
1.3102409
1.3180012
1.2686314
1.2190726
1.1664403
1.0940769
1.0188723
0.93673285
0.85819992
0.78822581
0.73867307
0.7006442
0.67031313
0.64007874
0.60897414
0.57763609
0.54708703
0.51801496
0.48990608
0.46245919
0.43480793
0.40699617
0.37995278
0.35442934
0.34214885
0.00014884069
0.00014731803
0.00014620344
0.00014475985
0.00014364425
0.00014451541
0.00014060287
0.0001425829
0.00013963503
0.00013431341
0.0001426961
0.00014887494
0.00017372699
0.00092688286
0.024224611
0.15597471
0.61219192
1.0984331
1.6184163
1.9716689
2.2343547
2.4092275
2.5439197
2.6993924
2.8366018
3.0313191
3.3163233
3.5224971
3.6797483
3.7276062
3.7331785
3.6836172
3.5495663
3.262234
2.7689221
2.2843443
1.9918033
1.8796031
1.7730416
1.6465035
1.5829246
1.5657919
1.687242
1.7215651
1.4254825
0.94872043
0.61672691
0.44337621
0.34845555
0.289476
0.24189641
0.23833526
0.23897014
0.23899436
0.22510692
0.18663296
0.15766539
0.13618379
0.12632328
0.13050854
0.16655844
0.2350147
0.3592065
0.55074614
0.76513084
0.9342626
1.0399625
1.1217537
1.1982876
1.259952
1.3178498
1.3672035
1.412913
1.4546052
1.4919137
1.5257369
1.5361937
1.5437332
1.5034944
1.458693
1.4151638
1.3516039
1.2863216
1.2172913
1.1467765
1.0810269
1.0272251
0.98447635
0.94544679
0.90672054
0.86644387
0.827178
0.78855742
0.75142647
0.71428369
0.67668014
0.63760986
0.6002477
0.56126727
0.5444162
0.00014883256
0.00014726422
0.00014610069
0.0001446385
0.00014334571
0.00014418384
0.00014046962
0.00014275687
0.00013913475
0.00013728785
0.00014162737
0.00015861411
0.00017713514
0.0010063065
0.029210608
0.1656094
0.57320973
1.0908134
1.5589859
1.8535729
2.0491793
2.1635531
2.2911165
2.4296979
2.562021
2.7131576
2.957844
3.1869424
3.4236708
3.5421437
3.611196
3.5799737
3.4583416
3.1686998
2.7346627
2.342857
2.1354214
1.9778353
1.8235417
1.6952558
1.6052083
1.5638791
1.6537983
1.6304292
1.2873093
0.85385865
0.57095001
0.43144853
0.35187818
0.28333362
0.24533318
0.23414351
0.23998925
0.23994378
0.22690338
0.19301691
0.15774166
0.14306255
0.13587822
0.14440918
0.18817228
0.27619414
0.43365194
0.66086777
0.90997578
1.0817955
1.1938837
1.2699339
1.3446159
1.406993
1.4641611
1.5164883
1.5704248
1.6296411
1.6707893
1.7086332
1.7355341
1.7527934
1.7559747
1.7193405
1.6841123
1.6450369
1.595639
1.5438715
1.4830248
1.4223059
1.3656966
1.3152943
1.2691649
1.226767
1.1829028
1.1389294
1.0948242
1.0516411
1.0081131
0.96338874
0.91628895
0.86947052
0.82276393
0.79915702
0.0001489019
0.00014731712
0.00014591401
0.00014476603
0.00014273913
0.00014360592
0.00014041712
0.00014341585
0.00013639326
0.00013641181
0.00014308708
0.00015389477
0.00016813109
0.0017135922
0.026671068
0.17371481
0.66177842
1.0780698
1.3838263
1.6061191
1.7536226
1.8689767
1.9623717
2.0618917
2.1719889
2.2957015
2.4523593
2.6799891
2.9360901
3.1287022
3.2733158
3.2618256
3.1294392
2.8465467
2.5121286
2.2925725
2.0816572
1.9080116
1.77074
1.6904617
1.5754499
1.5260895
1.5980708
1.5145112
1.1422367
0.75578971
0.52471383
0.41677484
0.36865056
0.29196643
0.25492056
0.2383484
0.23907969
0.23745899
0.2228087
0.19507592
0.1599232
0.1485771
0.1498601
0.17209502
0.23622713
0.35299051
0.53265579
0.7845906
1.046396
1.2309188
1.3365193
1.4122955
1.4822031
1.5420118
1.5963766
1.6507331
1.7144305
1.7758789
1.8219114
1.8654292
1.9092562
1.9312495
1.9420948
1.9352859
1.9157612
1.8869599
1.8506266
1.8123618
1.7620028
1.7125078
1.6621841
1.6147022
1.5708298
1.5284407
1.4860776
1.443375
1.3990747
1.3546295
1.3091562
1.2621274
1.2117916
1.1614215
1.1061991
1.0815931
0.00014887865
0.00014728203
0.00014591054
0.00014464825
0.00014264664
0.0001435497
0.00014002182
0.00014283307
0.00014284855
0.00013532544
0.00013847756
0.00015427317
0.00018201149
0.00080791347
0.026889207
0.18699062
0.59695677
0.88455137
1.1063027
1.3038448
1.4488208
1.549572
1.6247375
1.6925905
1.7644816
1.8388383
1.9280742
2.0512961
2.2455937
2.4267808
2.5805093
2.5836125
2.4313029
2.2149977
2.0242529
1.8572202
1.7376504
1.6408948
1.617098
1.6119456
1.4867619
1.4667552
1.5227493
1.3875511
1.0054042
0.67035655
0.48110605
0.39604816
0.35917793
0.29651412
0.25361209
0.23941143
0.24012209
0.23938015
0.2271942
0.19976241
0.16701891
0.15685633
0.16009402
0.19315683
0.26925544
0.40544938
0.61316469
0.89410461
1.1758925
1.3644123
1.4761277
1.5427828
1.6103929
1.666229
1.7191871
1.774438
1.8315138
1.890116
1.9433995
1.9946354
2.0476504
2.0857487
2.0975599
2.1054756
2.1058321
2.0805567
2.0630229
2.0242464
1.9856083
1.9461891
1.9036745
1.8628936
1.8254579
1.7870927
1.7504519
1.712483
1.6733954
1.6323741
1.5891555
1.5439189
1.495866
1.445886
1.39131
1.3650845
0.00014900812
0.00014727413
0.00014592073
0.00014447653
0.00014271492
0.00014305873
0.00014116446
0.00014058462
0.0001453659
0.00013781723
0.00014286359
0.0001538048
0.00017742624
0.0017177327
0.019010811
0.15518449
0.53388624
0.69607455
0.83416902
0.99337791
1.136962
1.2367545
1.2929327
1.3336321
1.3726739
1.4049807
1.4382712
1.471125
1.5097731
1.5544538
1.6239885
1.6032596
1.4660804
1.3527531
1.2987159
1.2560441
1.2489062
1.3186977
1.4111895
1.4559956
1.3728778
1.4033361
1.4329053
1.2508339
0.86610466
0.58368552
0.43643919
0.37135853
0.33554697
0.29440967
0.25556595
0.24087236
0.23751667
0.23746536
0.22765112
0.20514545
0.1704769
0.1676963
0.18498728
0.25232456
0.36131374
0.53554099
0.76037264
1.0333739
1.3084135
1.4892802
1.5983468
1.6698173
1.7299573
1.7801191
1.8290962
1.8861311
1.9355926
1.9943966
2.0489373
2.108752
2.1649209
2.2029329
2.2286847
2.2446685
2.2529751
2.2475517
2.2344388
2.2057848
2.1713019
2.1376255
2.1002489
2.0645337
2.0317667
1.9999262
1.9691637
1.9381295
1.9055983
1.8707659
1.8338818
1.7941275
1.7510352
1.7060033
1.6551009
1.6300336
0.00014901231
0.00014715698
0.00014590852
0.00014411959
0.00014267721
0.00014247734
0.00014094943
0.00014148589
0.00014182961
0.00013843727
0.00014527224
0.00014744032
0.00017452604
0.001071343
0.022426346
0.18404262
0.40033861
0.48272316
0.57389145
0.70406021
0.83494081
0.93533135
0.98909736
1.0183701
1.0440644
1.0466775
1.0417092
1.026788
0.98678442
0.93890636
0.90363658
0.86626876
0.82569527
0.80455216
0.80347615
0.83669135
0.93345632
1.071043
1.2525353
1.3001944
1.290398
1.3358053
1.3305066
1.1044069
0.7471035
0.51267266
0.39602257
0.3422727
0.31086765
0.276343
0.24353869
0.23504879
0.2332482
0.23234584
0.22487893
0.20674254
0.17599191
0.17632304
0.20133833
0.24894928
0.35916003
0.5425511
0.82151103
1.1383364
1.4286276
1.6026293
1.7132765
1.785087
1.849326
1.8887359
1.9323253
1.9741632
2.0256579
2.0819058
2.1319045
2.1964088
2.2584181
2.2979514
2.3371107
2.3701952
2.3733835
2.374906
2.3718783
2.3582453
2.3262123
2.297
2.2640827
2.232334
2.2021285
2.1747302
2.1486887
2.1230721
2.0968119
2.0684952
2.0384909
2.0056649
1.9696871
1.9308994
1.8876291
1.8647149
0.00014920184
0.00014697488
0.00014623639
0.0001437475
0.00014263433
0.00014192434
0.00014048016
0.00014017198
0.00014438504
0.00013873161
0.00014561308
0.00015075142
0.00017775738
0.00078837962
0.02263996
0.20084006
0.29127668
0.33259134
0.38545705
0.47034137
0.5759263
0.67446828
0.73397341
0.76611679
0.79134952
0.79051478
0.77911744
0.74325362
0.69293147
0.67257937
0.6859301
0.69463349
0.68466551
0.65741866
0.66508934
0.72135317
0.81567058
0.97636527
1.1300544
1.1812635
1.2253055
1.2704901
1.2267187
0.96646007
0.63617836
0.43567992
0.34892191
0.31415566
0.29034084
0.26195341
0.23568818
0.22957239
0.22732608
0.22695399
0.22020125
0.20403325
0.17964373
0.17721481
0.19459065
0.24119636
0.35660896
0.59988838
0.90755711
1.2527407
1.5358406
1.7056678
1.8250911
1.9018904
1.9539357
1.9953491
2.0294511
2.062427
2.1064216
2.1496136
2.2049653
2.2662692
2.3297574
2.3763669
2.4259563
2.464433
2.4793904
2.4903391
2.481454
2.4767129
2.4584546
2.4307904
2.4040645
2.3744843
2.3464189
2.3210746
2.2985218
2.2764582
2.2549547
2.2315773
2.2070713
2.1802255
2.1511243
2.1195917
2.0843761
2.0647624
0.00014913712
0.00014698378
0.00014618625
0.00014372653
0.00014251591
0.00014171678
0.00014041894
0.00014005671
0.00014490959
0.00013967181
0.00014603661
0.00015203227
0.00017791709
0.00080225535
0.030392096
0.12597533
0.19494552
0.20555872
0.23678864
0.30902687
0.38859233
0.47413176
0.54116075
0.57656953
0.61780194
0.62760193
0.62981842
0.62558773
0.62285962
0.63876234
0.65262426
0.64571327
0.60383992
0.59655617
0.64148827
0.72579432
0.8410286
0.96073498
1.055054
1.1246356
1.2004222
1.20834
1.117668
0.82518143
0.54777989
0.39638999
0.32691008
0.28657323
0.27100078
0.24505983
0.22619312
0.22701623
0.22516904
0.22298057
0.21493401
0.19853377
0.17836036
0.17518578
0.18673738
0.22857681
0.33183453
0.54288256
0.85254705
1.2357083
1.5810263
1.8032377
1.9310706
2.016191
2.0608327
2.0944612
2.1220647
2.1545779
2.1838109
2.222809
2.2690671
2.3180333
2.3823577
2.4404675
2.4914889
2.5365571
2.5670174
2.5830742
2.5805853
2.5821241
2.5666293
2.547303
2.5254095
2.4968964
2.4715984
2.4466986
2.4261438
2.4064335
2.3881226
2.3684199
2.3480023
2.3257683
2.3020462
2.276202
2.2476599
2.2314888
0.0001491652
0.00014711255
0.00014607683
0.00014372766
0.00014236849
0.00014155593
0.00014079295
0.0001396571
0.00014597002
0.00013958468
0.00014679623
0.00014936748
0.00018079497
0.00054688192
0.031442867
0.077369426
0.11441076
0.12624868
0.17675229
0.23463759
0.27507685
0.33917838
0.41540529
0.46092673
0.51530891
0.55244331
0.58825121
0.61906624
0.63027537
0.62669676
0.60701233
0.55674075
0.54048039
0.56820192
0.70093662
0.82818288
0.89939697
0.96403324
1.0269437
1.0958242
1.1479367
1.1469653
1.0145244
0.70920929
0.48520899
0.35783205
0.30785883
0.27304336
0.24546198
0.23063972
0.22026697
0.2166222
0.22112249
0.21555929
0.20640018
0.1951243
0.17515448
0.17084076
0.17919034
0.21139229
0.3040155
0.49657072
0.80894757
1.2512194
1.6279982
1.8898542
2.0296436
2.1184763
2.1778574
2.203996
2.2233882
2.2436511
2.2623226
2.2898046
2.3251181
2.3748851
2.4273786
2.4904015
2.5469014
2.5978281
2.6351145
2.6575507
2.6656426
2.66825
2.6554753
2.6488897
2.6301821
2.6059426
2.5819435
2.5579634
2.5379158
2.519572
2.5031033
2.485988
2.4684506
2.4494239
2.4294542
2.4076716
2.3841041
2.3705191
0.0001491001
0.00014708684
0.00014597873
0.00014360394
0.00014206564
0.00014123699
0.00014036225
0.00013996965
0.00014088605
0.00013957846
0.00014707313
0.00015102405
0.0001658781
0.00093182379
0.010328464
0.026678446
0.056227133
0.096687189
0.14532219
0.18327321
0.19676116
0.2459077
0.33679334
0.39897666
0.46648711
0.53251489
0.56585446
0.58461809
0.58338896
0.56558855
0.51751398
0.47377272
0.50865385
0.63177578
0.82969153
0.88517897
0.91036976
0.93965385
1.0304208
1.0957801
1.1209912
1.0840479
0.90933287
0.62430449
0.43951406
0.35698899
0.30781764
0.26893129
0.24030622
0.22040105
0.2142672
0.20838416
0.20963468
0.20531529
0.20140163
0.18872839
0.17005282
0.16479883
0.16986637
0.1950725
0.27283526
0.44577089
0.73746302
1.1690595
1.5983494
1.9462096
2.1216954
2.2295741
2.2914411
2.3142829
2.3343181
2.3404347
2.3537748
2.3666033
2.3889593
2.4284118
2.4751773
2.5365985
2.5927172
2.6492522
2.6937514
2.7152687
2.7336234
2.7404237
2.7407542
2.7410968
2.7264568
2.7037306
2.6816955
2.6591395
2.6388721
2.6215407
2.6051851
2.5899124
2.5745203
2.557442
2.5400637
2.5209492
2.5006888
2.4888706
0.00014928111
0.00014692981
0.00014615299
0.0001433756
0.00014185634
0.00014083909
0.0001397162
0.00013974417
0.00014317663
0.0001461803
0.0001451768
0.00014772824
0.00017130689
0.00028098183
0.0041705606
0.005918003
0.029893289
0.052293898
0.08733471
0.10727165
0.10249025
0.14164911
0.23981498
0.31760973
0.40336863
0.46907996
0.49769755
0.50442063
0.49841487
0.47119131
0.42314972
0.41997294
0.50305056
0.7413157
0.88888686
0.92985226
0.92427474
0.97700513
1.0091532
1.0478775
1.081056
1.0276001
0.82173637
0.57318127
0.4354619
0.38534222
0.3313386
0.27559097
0.24203871
0.22015208
0.19926928
0.19040226
0.19423925
0.19608326
0.19085266
0.17749825
0.1646912
0.16045938
0.16315722
0.18123615
0.24239236
0.38447502
0.65432687
1.0828765
1.5862561
1.984374
2.2026767
2.3291373
2.4044877
2.4399434
2.4449007
2.4581859
2.4519993
2.4521478
2.4625914
2.4853308
2.5246005
2.579258
2.6246887
2.6860076
2.7329555
2.7725001
2.7954897
2.8077819
2.816606
2.8173706
2.8087489
2.7944361
2.7730072
2.7519665
2.7306611
2.7131278
2.6986282
2.6843612
2.6710795
2.6547209
2.639278
2.6217107
2.6037607
2.5930453
0.00014922496
0.00014692226
0.00014608822
0.00014333546
0.00014200786
0.00014040439
0.00013967909
0.00013998527
0.00014289705
0.00014515631
0.00014569263
0.00015234682
0.00016498436
0.0007750796
0.0012312965
0.0016692874
0.0093130274
0.016745327
0.030155625
0.027068991
0.025992476
0.04575393
0.13638747
0.21761258
0.3086441
0.38048629
0.41183816
0.43075131
0.43326774
0.3937683
0.35160179
0.37449754
0.5398312
0.84154735
0.97808098
0.98020795
0.95172138
0.99647214
1.0391333
1.0332176
1.0754351
0.97834409
0.75033159
0.54345559
0.45762512
0.41531988
0.36320184
0.30275988
0.26182887
0.23278584
0.1994557
0.17651116
0.17963885
0.18807609
0.18250341
0.16931507
0.15466748
0.1527098
0.1554854
0.16508051
0.21322806
0.32172897
0.5582065
0.96980248
1.5018541
1.9610787
2.259649
2.4213127
2.5111479
2.560638
2.5782149
2.5731612
2.5608451
2.546779
2.5423018
2.5510396
2.5745926
2.6146261
2.6590831
2.7180405
2.7699916
2.8195798
2.8480896
2.874527
2.8750903
2.880748
2.882455
2.8778396
2.8563077
2.8389671
2.8163797
2.7987086
2.7850067
2.7715253
2.7587466
2.7448833
2.7308755
2.7141467
2.6977837
2.68791
0.0001493095
0.00014697643
0.00014605751
0.00014329531
0.00014218454
0.00014004523
0.00013939444
0.00013980537
0.00014198106
0.00014642723
0.00014613414
0.0001531012
0.00017891551