/*--------------------------------*- C++ -*----------------------------------*\
| =========                 |                                                 |
| \\      /  F ield         | OpenFOAM: The Open Source CFD Toolbox           |
|  \\    /   O peration     | Version:  2406                                  |
|   \\  /    A nd           | Website:  www.openfoam.com                      |
|    \\/     M anipulation  |                                                 |
\*---------------------------------------------------------------------------*/
FoamFile
{
    version     2.0;
    format      ascii;
    arch        "LSB;label=32;scalar=64";
    class       volScalarField;
    location    "200";
    object      omega;
}
// * * * * * * * * * * * * * * * * * * * * * * * * * * * * * * * * * * * * * //

dimensions      [0 0 -1 0 0 0 0];

internalField   nonuniform List<scalar> 
16045
(
367.87419
320.55982
283.80297
254.38301
229.89594
209.33053
192.02519
176.68878
164.42596
153.0954
144.66629
137.23714
130.29288
126.06313
114.50976
119.45371
135.72472
147.66909
154.97942
164.06034
182.77105
211.48664
239.26714
266.57205
280.46568
280.44551
281.5398
290.85343
306.99471
326.87247
349.7624
382.58053
425.06934
457.60763
464.27424
440.49176
414.97338
420.56486
453.80279
455.13747
413.80387
361.66174
320.09544
287.95631
259.67989
240.65058
196.39564
133.77611
115.58731
115.74237
122.08594
129.19365
133.01785
133.56042
131.62685
130.70753
137.18435
142.18687
109.95869
88.734451
79.007132
75.12143
71.539862
66.41883
63.558999
60.897355
58.469431
57.062023
55.921376
54.855651
54.228222
53.607218
53.048727
52.564227
52.058199
51.472314
50.829969
50.073901
49.454584
49.275375
49.122151
49.261046
49.106252
49.372609
49.259473
49.440804
49.517688
49.802845
49.649673
49.409203
49.140013
48.8114
48.423294
48.125033
47.847202
47.559296
47.117572
46.717891
46.511318
46.418904
367.86232
320.54686
283.93628
254.37669
229.9474
209.50782
191.76109
177.07221
164.60109
152.91529
145.26752
138.35124
125.31311
120.04061
123.58039
138.57149
152.48946
160.74457
169.92581
188.16934
216.42096
239.40937
258.35569
278.7465
293.28543
294.05345
291.9269
295.713
307.254
325.01774
347.44667
374.54422
400.95298
423.40423
439.78956
439.38247
419.64159
424.89605
454.76136
467.51026
432.75075
378.11787
333.67063
298.00603
267.8657
250.18437
219.24969
155.21319
124.39305
121.24479
126.43049
132.81689
136.21437
136.06324
130.89499
130.1094
137.27621
134.655
113.45128
105.44437
84.250879
80.047551
75.106132
69.271426
65.901166
62.979295
60.30278
58.68714
57.413106
56.276116
55.627997
55.028662
54.531318
54.138411
53.730581
53.297397
52.795966
52.158153
51.408631
50.709699
50.436031
50.303
50.377502
50.553808
50.416334
50.612343
50.913567
51.101658
51.007007
51.271734
51.342834
51.545908
51.44262
50.960888
50.799846
50.564202
50.24878
49.710119
49.319278
49.11689
367.94241
320.46305
283.99882
254.13002
229.99343
209.28839
191.71513
177.08578
164.60399
152.78884
146.47665
136.40996
124.58249
124.2443
131.31894
148.34614
158.62971
165.27972
177.58495
203.43556
230.18015
249.65142
265.5147
281.14921
294.1678
300.56028
301.38801
302.52312
309.62484
323.01648
341.04599
361.38921
381.58148
405.19532
426.04281
430.38959
426.82621
426.67937
450.14041
470.97066
449.67952
399.53368
352.93511
314.10419
278.58956
252.23172
228.34086
183.20205
146.94752
137.44677
137.76237
139.25221
139.6975
135.86573
129.77758
128.8856
133.20297
123.69214
113.3727
93.540028
75.911399
72.797616
69.40222
66.039807
63.58132
61.432877
59.43644
58.144965
57.081643
56.129419
55.562659
55.010883
54.591085
54.261677
53.918051
53.553475
53.117035
52.538447
51.849898
51.039029
50.416731
50.399858
50.382898
50.444175
50.495035
50.472896
50.62818
50.754542
51.008206
51.119674
51.273795
51.459539
51.677079
51.648476
51.649999
51.44118
51.228088
50.998763
50.803516
50.682211
367.81772
320.53976
283.90873
254.16014
230.06567
208.99591
192.18411
176.34074
165.14252
152.97619
146.44888
133.54867
128.35933
129.89388
141.21024
156.87076
165.1666
175.80807
199.51433
231.95448
251.53409
263.65105
273.3106
282.35622
291.79973
298.59821
301.53023
303.76419
309.48536
319.71819
333.38225
348.02425
363.94204
384.60195
412.50852
430.85659
431.59277
431.64197
445.16662
468.42139
459.75332
419.21098
375.76094
336.62984
302.04758
257.88047
228.93093
187.665
148.73027
138.27543
145.26604
142.69422
143.51677
133.36326
125.68616
128.29864
130.5359
126.13599
115.79422
91.499324
77.768735
74.460647
70.569985
66.741675
64.311928
62.0534
60.22144
58.98212
58.028841
57.163761
56.6897
56.195034
55.827702
55.528177
55.229702
54.944659
54.582168
54.106202
53.505621
52.7635
51.988557
51.621871
51.61602
51.544872
51.656036
51.701019
51.684512
51.850368
51.948085
52.079776
52.299768
52.344679
52.456315
52.60725
52.361032
52.307911
52.233403
52.0149
51.866233
51.768371
367.78755
320.65793
283.58901
254.33716
229.69211
209.06653
192.07997
177.01141
163.48431
155.45437
143.70187
133.07855
126.98664
131.34193
147.96971
161.42975
171.2767
190.39287
229.86599
255.59938
267.51037
274.28965
278.7562
282.88513
287.61417
292.39498
295.52296
299.14503
304.63187
313.32799
324.40417
336.57206
350.16154
369.82566
398.94847
422.08408
430.17555
433.44079
442.7617
469.91902
463.29752
434.78311
397.09291
360.86213
324.60766
273.26115
229.25111
180.22501
142.70622
135.81553
146.32939
148.39882
141.64633
129.52634
124.63416
130.47676
132.60344
131.42078
114.17263
88.067081
77.296899
73.005686
69.04853
65.493328
63.680387
61.532903
60.034817
59.026088
58.166575
57.442507
57.039995
56.602988
56.283218
56.008352
55.749055
55.508669
55.205842
54.792259
54.251619
53.530931
52.725307
52.123692
52.031323
51.976689
52.043863
52.060065
52.151943
52.199028
52.267459
52.451175
52.641696
52.722219
52.871937
53.00973
52.869922
52.960626
52.787223
52.678991
52.589247
52.519354
367.80477
320.56243
283.74216
254.40273
229.66817
209.71836
191.51621
177.84113
163.97064
155.01041
145.92112
131.1528
130.90043
137.1019
154.55189
166.31661
182.02685
219.71369
257.67398
273.38471
278.64759
279.89073
280.36741
282.33908
283.99208
285.80006
287.26746
291.10621
296.69365
304.73918
314.5334
325.68163
337.30144
354.40458
383.20531
411.73083
425.46279
430.75613
443.31935
464.53936
460.67635
442.80591
412.80432
379.3298
340.69978
288.72241
227.40176
164.64038
137.82841
136.52393
146.49126
146.85033
136.24797
129.05195
128.17445
134.83176
136.41207
131.81072
110.30273
84.424381
76.929465
72.72072
68.823068
65.488055
63.827149
61.895202
60.758574
59.76631
59.238461
58.679306
58.391136
57.977626
57.648308
57.32176
57.063746
56.809923
56.545865
56.187833
55.70432
55.056033
54.252423
53.463256
53.18824
53.176975
53.240055
53.307649
53.249312
53.345354
53.36949
53.42841
53.415547
53.489978
53.521199
53.689317
53.836336
53.700682
53.669473
53.579589
53.535781
53.482239
368.02274
320.33637
283.85463
254.10661
229.68473
209.56455
192.13949
176.60038
166.36422
152.9714
146.7088
132.05964
134.7374
141.60344
158.48094
171.70376
198.10104
250.61189
270.76401
278.6064
280.53834
279.04474
279.54943
280.46441
280.39664
278.91375
279.64237
283.51868
288.74956
296.14228
305.30808
315.40052
325.93321
341.0778
365.89626
396.47116
418.99804
427.66314
436.25072
455.45165
457.14836
446.22299
422.3979
390.85427
350.9907
297.6848
220.15671
156.4233
132.10618
137.93315
144.5211
142.66849
131.94892
127.64891
133.37105
136.94926
137.41157
128.43657
102.89561
82.414098
76.086822
72.053859
67.974869
65.10855
63.399568
61.862471
61.050275
60.288139
60.191314
60.433718
60.358508
59.736016
59.220682
58.745133
58.363642
58.088534
57.728147
57.369292
56.883262
56.303683
55.547998
54.770624
54.319444
54.287317
54.316579
54.311488
54.310896
54.424633
54.231636
54.178172
54.177353
54.256775
54.203067
54.236265
54.334123
54.350385
54.331351
54.10108
54.094126
54.037809
367.94982
320.34214
283.93148
254.00713
230.14237
209.45078
192.21012
178.37653
165.394
157.10958
151.263
135.20236
138.03389
147.07687
161.94788
179.20731
224.38346
260.53947
273.92565
278.65018
278.75443
279.9139
279.25183
279.27341
278.31098
277.24893
275.9534
278.52901
282.63605
289.008
297.59719
306.54828
315.71288
329.95907
350.72364
381.74143
406.18742
418.81521
434.93484
447.65893
450.25958
444.75425
426.75134
396.88835
356.63568
302.79473
215.06839
147.673
132.70331
137.09693
139.60593
133.84354
129.36824
128.45086
135.22275
137.26215
135.37668
120.08597
95.273332
81.025556
75.836578
72.713531
68.102052
64.656154
63.601504
63.388021
62.717005
63.094362
62.846617
62.411646
62.445922
62.05535
61.824343
61.477209
60.99359
60.705715
60.255827
59.796714
59.173246
58.526098
57.756859
56.885313
56.216964
56.11354
56.112005
56.032913
56.082022
56.042621
55.995871
55.695554
55.676172
55.692178
55.663511
55.758526
55.786877
55.820052
55.547131
55.502441
55.37406
55.315461
367.84069
320.58069
283.81181
254.03156
230.15665
209.60412
192.47623
178.80406
166.95284
157.5926
151.10373
140.28991
142.3278
151.55172
166.86109
189.57521
239.31486
264.41171
273.27999
278.6728
279.45725
279.33879
277.94045
276.6573
275.97784
275.4732
273.72464
275.36651
278.55946
283.81318
291.63542
298.0837
305.95642
319.16181
336.10259
367.91505
393.22059
413.8506
428.36967
441.01604
441.57933
439.3531
427.4526
399.3492
358.74351
302.77253
207.40229
145.27886
134.00456
133.3368
131.18591
127.71557
126.3645
128.65409
133.72256
134.72899
126.36054
110.27804
92.057928
79.997183
76.839169
73.317799
67.596174
64.73978
63.934732
63.754999
63.873164
64.311797
64.554837
64.559271
65.155164
65.537782
65.730029
65.725811
64.900811
64.395826
63.673977
63.064084
62.119312
61.200818
60.220072
59.227385
58.315395
58.118925
58.0796
57.87234
58.027044
58.095413
58.005821
57.876869
57.326613
57.133563
56.953784
56.879232
56.836879
56.920364
56.796468
56.728301
56.68658
56.642565
367.76167
320.64056
283.72543
254.29907
230.25733
209.74334
193.02809
179.25075
167.44395
159.16426
154.5444
139.36608
143.63171
154.11192
170.56308
201.22318
244.9943
265.36889
272.87232
276.57154
277.01196
278.48628
279.56227
277.90699
275.72624
273.94755
273.4851
273.36703
276.15085
280.31568
286.20659
290.0804
296.81702
307.79629
323.21341
348.50391
389.93483
410.10497
421.80488
431.18068
432.20537
431.95636
424.36044
399.06713
358.42556
301.26848
204.96586
145.51305
133.12761
128.75828
125.11909
123.62875
123.65047
125.69049
127.87668
124.5473
116.16523
103.44111
89.207624
80.72395
78.838245
73.600952
68.038159
65.305022
64.905793
64.89051
65.738732
66.995071
68.000123
69.090972
69.840872
70.50785
70.982482
71.573694
71.524257
71.126328
69.37931
68.723765
67.294227
65.983265
64.441993
63.071025
61.728771
61.083204
60.75904
60.663815
60.799394
60.808458
60.353107
60.27876
59.944648
59.634816
59.412091
59.288542
59.153241
59.06923
58.988651
58.861205
58.765633
58.721665
367.85639
320.67647
283.56823
254.39415
230.05253
209.93063
193.32301
179.37455
167.09864
160.21179
148.36325
142.84186
147.9589
158.78187
173.24159
211.20632
246.6989
263.90646
269.789
273.28074
275.36617
276.8104
279.78647
279.08079
277.54833
275.9925
275.33761
274.11628
276.12292
278.7863
281.95028
284.73376
289.69161
299.77933
311.36384
337.54789
379.45912
399.31093
411.91566
419.63847
423.59621
423.83685
419.03642
395.39764
355.65417
291.20888
198.87195
147.41763
132.03562
126.2532
122.02846
120.44158
119.73545
119.96456
119.7722
116.53699
109.78181
99.454725
86.725905
82.811797
78.933386
73.049504
69.17151
66.546893
66.548677
67.613545
69.517327
71.175696
72.638062
74.089701
75.155728
76.234778
76.941105
77.507567
77.769231
77.629968
76.333685
75.704044
74.322264
72.651472
70.634771
68.611781
66.635534
65.149839
64.372231
64.344172
63.733256
63.640015
63.376879
62.842771
62.494403
62.296966
62.098421
61.923947
61.764985
61.575669
61.45558
61.255101
61.119079
61.055816
367.92623
320.42677
283.65861
254.38913
230.35268
210.06853
193.58224
180.04764
168.88073
160.189
152.81736
143.26785
148.58653
159.58957
176.37437
211.27795
248.01401
263.6938
268.49257
271.56079
276.05882
275.94373
279.7136
280.93632
280.63731
279.17404
279.23494
278.01003
278.88143
279.64574
281.13973
281.07939
286.45906
293.62473
306.06788
328.42459
370.15922
388.38081
400.16701
404.94705
410.95799
415.15187
411.11935
388.45598
349.74143
277.07431
191.50972
146.12512
131.60639
124.52725
120.23836
118.22556
115.88368
114.67757
113.77837
111.45108
106.47951
98.701246
89.143215
85.239398
80.521591
74.880333
71.51043
68.838679
69.216969
71.066345
73.342645
75.027336
76.533172
78.066939
79.115407
80.338123
81.205578
82.020454
82.582524
82.683116
82.601724
82.088279
81.668608
80.474862
78.767834
76.545485
74.087778
71.813476
69.900344
68.803648
68.163051
67.815112
67.565371
67.332247
66.950106
66.528062
66.171273
65.803167
65.539006
65.263267
64.978465
64.716001
64.494934
64.373653
368.06426
320.34733
283.75301
254.3394
230.16601
210.47429
193.66766
180.50516
168.61473
161.97349
153.10115
145.15997
150.25387
160.838
177.37267
212.74382
246.00111
260.74539
268.02669
271.68509
273.07205
276.82573
278.5205
283.00816
284.09214
284.77707
285.28985
284.97735
284.99761
284.09447
284.92858
284.75725
288.25102
294.57998
301.6788
329.14831
361.66836
385.56874
395.29733
397.82069
401.0408
405.77178
401.42593
378.79895
338.58162
259.43406
180.74313
143.60209
130.80292
122.7264
118.68085
114.42584
112.69393
110.89836
110.02137
108.26034
104.48998
98.258626
90.620902
87.714675
82.988596
77.107743
74.516298
71.518223
72.119672
74.438266
76.539454
78.066064
79.481277
80.886174
81.833985
82.96748
83.784664
84.585905
85.122426
85.249246
85.502513
85.438166
85.655253
85.395927
84.850769
83.931083
82.259531
79.997695
77.664676
75.92338
74.894696
74.308054
73.8845
73.363583
72.783832
72.149652
71.533324
70.963569
70.450496
70.017179
69.595446
69.129268
68.781621
68.623212
367.94029
320.49027
283.76627
254.47519
230.55608
210.56577
194.27724
181.16424
169.13087
161.56626
157.0528
146.28593
151.62641
162.00677
176.24963
210.16206
244.68236
258.18522
264.91574
268.58199
269.85283
273.1017
276.77161
283.21647
288.23273
290.67589
293.02799
294.2609
294.40557
293.84063
293.87857
294.08102
296.36754
297.43977
306.67031
333.41549
364.70946
383.4593
386.56036
387.98183
390.85388
394.74006
390.07155
366.40856
323.07669
239.81667
169.87004
141.30438
128.3423
121.71467
117.57156
111.21629
110.4404
108.27998
107.52441
106.05016
103.19405
97.931336
91.48252
89.456276
83.173937
81.300183
77.338773
74.663366
74.870489
76.832475
78.969086
80.423862
81.655853
82.853199
83.762887
84.730288
85.494891
86.213894
86.736326
86.630206
86.797573
87.210882
87.328491
87.352253
87.472002
87.283135
86.878077
86.224369
85.244839
83.562728
82.202049
81.285945
80.773156
80.228849
79.600487
78.858163
78.14845
77.432883
76.80255
76.186684
75.605815
74.980237
74.484022
74.231077
368.05005
320.48474
283.78904
254.42475
230.78475
210.32822
194.70798
181.63365
169.29932
162.44938
158.25118
150.51712
154.02623
163.94013
175.73121
209.75006
240.79553
256.35521
262.82246
265.77674
267.78697
270.93725
277.30776
282.06781
288.67862
294.80492
299.89651
303.09823
304.90954
306.26811
307.28862
308.17717
308.83601
309.72033
321.15724
344.05571
365.00325
374.83837
374.53344
376.31445
379.00472
382.83567
377.45595
351.90571
304.49832
220.7016
162.07608
139.12442
127.90526
120.65345
116.74242
110.84044
108.84135
106.78199
106.06317
104.72658
102.43866
96.875439
93.349209
91.26751
86.500374
84.708844
80.727614
77.672012
77.282862
78.883276
80.817537
82.27541
83.282557
84.389034
85.190416
86.062482
86.753918
87.282387
87.604173
87.544287
88.066483
88.150215
88.52317
88.708473
88.515867
88.81814
88.788037
88.625987
88.552438
88.46923
88.026362
87.39638
86.933081
86.534881
86.100107
85.484627
84.8543
84.171026
83.546462
82.933071
82.315051
81.614517
81.01033
80.718449
367.95165
320.47904
283.71275
254.4386
230.83348
210.72768
194.74439
181.60602
170.59504
162.29619
159.40874
147.95125
153.63902
162.5372
174.3505
207.12502
234.75933
247.85417
258.56022
262.80006
264.61088
270.50275
274.05021
278.6497
285.77967
293.701
300.82695
308.33078
313.39031
316.85403
319.38489
320.80985
321.07698
322.55555
333.17511
346.38228
350.40772
358.63375
358.01416
360.3216
364.37864
370.30522
363.34982
335.36186
283.16644
201.89186
154.79035
136.9378
126.69384
119.89333
114.90843
111.16968
107.66041
105.53287
104.82253
103.61157
101.8852
97.060017
92.95002
92.163528
88.691494
86.283078
82.656135
80.77914
79.547604
80.990986
82.104151
83.827358
84.731508
85.63326
86.429803
87.225281
87.693496
87.646703
88.267265
88.605197
88.917055
89.009445
89.196121
89.678828
89.680981
89.664804
89.861249
89.854062
90.22877
90.667146
90.982295
91.111209
91.140268
90.98104
90.866258
90.613886
90.297162
89.88963
89.475586
89.045636
88.594194
88.023171
87.478725
87.185564
368.02812
320.47516
283.84321
254.31144
231.00329
210.72598
195.25419
182.18519
170.46615
163.52528
159.07853
150.82215
153.93083
161.01976
170.94151
204.81964
221.81036
235.22201
249.06444
258.81805
263.8767
265.29856
269.22913
274.73067
281.23657
288.49985
296.30501
305.81123
312.52275
317.62649
320.95687
322.50512
322.77854
326.00499
332.33865
328.40742
332.57606
337.4228
338.06887
341.75498
348.89493
357.12404
348.09661
317.5422
261.07921
186.42798
149.14197
134.9481
123.72055
117.82809
114.37106
110.05188
106.89855
104.82291
104.04935
103.00647
101.5913
98.279925
94.353742
93.51185
90.25579
88.039835
85.445819
83.438049
81.861582
82.317028
83.644049
85.156177
86.061187
86.852573
87.622934
88.254202
88.301701
88.389051
89.06033
89.54284
89.558458
90.014611
90.294524
90.727712
90.58406
90.577954
90.818461
90.879989
91.433435
91.975481
92.60183
93.123294
93.473424
93.69616
93.85339
93.920061
93.971188
93.917854
93.823915
93.69019
93.514761
93.222817
92.898448
92.670564
367.9627
320.48788
283.86444
254.39633
231.18633
210.7838
195.75912
182.20348
171.08339
163.2685
159.43293
150.68047
151.66006
157.08365
169.64114
194.72892
205.49604
220.16609
235.13154
246.08826
252.72228
256.80483
259.52459
263.98753
269.98947
276.84488
284.56756
292.64925
298.84088
305.04801
309.32554
309.89051
309.68617
310.10927
308.72344
307.22871
305.9754
309.73858
314.17885
321.44137
334.81738
344.45879
331.82245
298.28495
237.20625
171.91486
144.05397
133.49961
123.78371
119.3403
111.75946
108.4209
106.27882
103.9973
103.32263
102.48932
101.21679
98.068907
94.956502
93.224031
91.183347
89.370279
87.382416
85.610105
84.185461
84.254035
85.024374
86.810717
87.519998
88.180184
88.742085
89.13779
89.461138
89.73321
90.202126
90.600357
90.585719
90.742918
91.452628
91.656044
91.567349
91.833195
91.65046
92.198396
92.608772
93.069804
93.741378
94.410561
94.932374
95.450604
95.779766
96.083631
96.330642
96.550009
96.751885
96.901084
96.973048
96.970692
96.906574
96.803998
368.06537
320.49364
283.8591
254.3907
231.21424
210.73341
195.78545
182.2152
171.06259
162.63057
158.9957
154.1702
150.88719
155.58542
169.19717
180.66759
189.91386
202.8271
215.83983
227.10852
236.47401
242.51353
245.85643
249.86882
254.92148
260.27234
265.92202
271.82316
276.24354
279.57778
282.60864
281.81882
280.60107
278.09093
271.70102
267.41168
268.03884
276.65647
287.19437
302.66086
324.00707
332.56778
315.59392
278.6589
216.00528
161.04352
139.61432
131.31736
124.98718
117.59541
111.76651
107.55496
105.50541
102.95777
102.17071
101.54052
100.81327
98.406824
95.52238
93.236181
91.946481
90.146517
88.147538
86.888917
85.454753
86.321536
87.139581
88.455323
89.214578
89.781229
90.181034
90.185683
90.653138
90.815175
91.24473
91.407752
91.518749
92.000812
92.484671
92.745177
92.687071
92.726406
92.714219
93.137613
93.650519
94.101636
94.767882
95.463283
96.088956
96.684988
97.18093
97.612308
98.010428
98.384084
98.720082
99.05018
99.341691
99.561708
99.661964
99.724682
367.96157
320.47343
283.7347
254.5723
231.14628
211.25832
195.72751
182.79692
171.45461
162.94901
158.32228
153.74893
149.77924
153.83079
163.99972
169.46322
175.33073
185.09109
194.59215
203.11099
213.53392
222.3327
226.67713
230.90022
235.61937
239.19925
242.33077
244.81168
245.7294
245.61046
247.03295
246.72943
245.0529
242.42448
236.06898
230.83205
236.00057
247.01835
268.40718
291.43459
313.58586
321.16821
299.42945
258.44548
194.02362
150.30027
135.11155
129.33399
124.26593
118.16124
112.81297
107.0101
104.27835
102.18144
101.39918
100.84231
100.06248
98.145207
95.24173
93.750078
91.252162
89.514841
89.60504
87.291945
86.999562
88.545046
89.476905
90.630957
90.89357
91.595992
91.861361
92.1818
92.177122
92.19275
92.684808
92.658021
92.658211
93.297135
93.527393
93.474792
93.941433
94.00102
93.972881
94.058619
94.698546
95.138974
95.760577
96.430631
97.132194
97.768674
98.342664
98.852839
99.321345
99.785694
100.21611
100.65297
101.06748
101.45859
101.69947
101.83619
367.98307
320.56622
283.5698
254.58746
230.93642
211.3006
195.69557
182.99595
171.17255
162.833
158.72038
153.1119
148.19963
152.02568
157.51254
159.11289
161.23118
166.94237
172.20392
177.18241
185.86379
195.52172
200.74511
205.63624
210.75002
213.01268
213.57881
212.4703
210.59826
207.30015
207.22918
209.82603
212.69125
216.54329
219.31906
219.66724
224.8644
239.6721
263.79597
290.66219
308.16297
308.76876
281.94974
236.98632
176.94658
144.42873
132.6253
127.50384
121.72762
116.75595
112.45107
105.97565
103.09409
100.99882
100.02384
99.549079
99.152357
97.907719
95.920765
94.287443
91.899004
90.209489
90.462839
89.05119
88.743579
90.837755
91.78154
92.722634
93.37899
93.613681
93.93447
94.224495
94.073218
94.227108
94.188638
94.174512
94.119459
94.600081
94.648378
94.678237
95.035508
94.954749
95.350229
95.403489
95.724492
96.258394
96.737344
97.402772
98.124571
98.821396
99.438649
100.01803
100.52552
101.03907
101.51789
102.01442
102.49598
102.96669
103.30347
103.48825
367.92034
320.53293
283.65281
254.64203
230.9346
211.5555
195.86355
182.94508
171.61987
163.22274
158.2477
152.34836
148.75188
150.87817
151.14893
148.03112
147.96103
150.60756
152.08484
153.46457
159.41958
167.38609
171.68857
175.97755
180.68016
181.52493
179.75956
178.63506
176.43543
173.40304
175.12413
183.07667
199.33821
215.84583
222.31986
224.49687
226.38378
242.57289
271.35155
292.00755
294.40842
294.92094
264.26308
216.26362
161.41112
136.52861
128.55358
124.83474
118.53598
115.7729
110.66528
102.57141
100.3562
98.851547
98.631642
98.616097
98.33507
97.188072
95.787277
93.628143
92.358636
90.542873
90.834322
90.233153
91.568187
92.984744
94.161703
94.990905
95.920745
96.306215
96.434154
96.34708
96.311936
96.059131
95.938068
96.175135
95.944735
95.989841
96.12893
96.14164
96.22702
96.243505
96.538661
96.501792
96.978182
97.370777
97.759224
98.44005
99.110889
99.878527
100.53855
101.17537
101.7236
102.27284
102.7862
103.3145
103.83059
104.34254
104.73877
104.94997
368.07708
320.44184
283.63191
254.5719
230.80653
211.67046
195.5181
182.86627
171.83116
162.5236
157.43012
151.49577
148.1318
147.60191
142.32006
138.09723
136.96341
136.44822
134.41484
133.50505
138.28758
144.15895
146.43078
148.82616
150.95707
151.51619
151.40187
151.46517
151.06255
151.47024
158.04634
179.25264
212.12226
236.66789
233.85608
226.55366
229.29151
248.28285
276.30568
289.07488
289.01661
278.74918
244.15534
195.16751
150.62065
132.15846
124.30837
120.95027
118.49781
113.00101
108.39425
103.41685
98.027043
97.359623
97.500865
96.32644
96.325629
96.10392
95.09897
94.055919
91.816861
90.779637
91.869976
92.265777
93.78177
95.032078
96.565866
97.834841
98.397288
98.652892
99.191201
98.829162
98.907511
98.402934
98.104001
97.894815
97.872935
97.625084
97.605432
97.572952
97.657967
97.772588
97.878294
97.901517
98.373951
98.537477
98.938691
99.50665
100.16197
100.94365
101.66702
102.35386
102.94641
103.53006
104.07508
104.6316
105.17596
105.71521
106.1426
106.36824
368.04371
320.28618
283.59481
254.48826
230.79728
211.66914
195.67187
182.76099
171.75741
163.09607
155.62006
151.02476
145.97796
145.25725
138.25759
131.23119
127.42471
124.76898
121.09873
121.71975
124.60131
128.56643
129.64833
130.8975
131.43185
132.18692
133.75653
135.24876
136.80965
140.92255
156.45635
194.23435
239.01939
244.81493
230.36369
226.92062
236.44408
261.20461
274.58337
277.79679
276.92723
260.4976
223.71788
174.45157
142.54946
130.81799
124.76654
121.84975
118.32455
110.82695
105.52364
103.17818
98.714298
97.97568
95.410509
95.410389
95.405025
95.052916
94.364466
93.462381
92.002357
90.911808
93.087426
93.944085
95.63269
97.016376
98.834152
100.174
101.21909
101.79941
101.78503
101.74436
101.54767
100.83517
100.26803
99.852384
99.665344
99.239422
99.174862
99.035129
99.057846
99.505294
99.490555
99.539559
99.625484
99.591979
100.08516
100.66513
101.27384
102.03779
102.82515
103.55826
104.2028
104.82192
105.40014
105.98518
106.55716
107.1223
107.57635
107.81332
368.07854
320.31729
283.54377
254.27164
230.73103
211.58886
195.5581
182.61092
171.53356
163.38059
154.79979
150.0904
144.3489
142.4619
136.01815
126.86443
120.15136
117.03881
113.62657
114.26979
116.07345
118.54023
119.80505
121.46668
122.05813
122.95965
123.94091
126.03596
129.37855
138.92696
164.21985
224.65719
266.3694
241.13805
234.51006
230.66937
246.75036
261.39157
277.11902
278.79886
267.69805
239.53538
202.26523
160.99002
139.08615
127.9001
124.22422
124.11469
118.09004
110.25255
107.93936
107.42278
101.69045
97.303639
95.18608
95.1532
94.182287
92.454714
92.463246
91.595892
91.562647
92.262752
94.082695
95.450551
97.178111
98.757202
100.81894
102.61845
104.00129
104.47857
104.89801
104.57183
104.35501
103.49083
102.66731
102.00125
101.49955
100.97359
101.12132
100.79332
100.87186
100.8946
101.06667
101.05807
101.04867
101.04278
101.43085
101.83794
102.47461
103.17927
104.00377
104.7929
105.4875
106.15109
106.76329
107.38163
107.98334
108.57726
109.05748
109.30815
367.96128
320.35542
283.54241
254.29563
230.69875
211.50544
195.56024
182.52105
171.40751
162.73848
154.38
148.90444
142.33084
140.77919
136.17664
125.58665
116.03436
111.79834
107.45017
107.85656
109.18515
110.29427
112.2463
114.51421
115.43539
116.56122
117.61455
119.7966
124.95894
142.59115
181.24589
260.0203
277.78956
241.34884
229.91164
236.12703
255.03695
263.06564
267.17082
271.48253
248.53665
219.07546
184.70602
153.05161
135.20574
130.11079
125.01633
126.52626
121.66496
112.0009
110.56498
110.89839
104.88776
97.151657
95.289489
93.859803
94.055528
92.119215
91.211969
92.074415
90.91222
93.739902
95.17587
96.373689
98.263166
100.35323
102.57487
104.74173
106.60986
107.43107
107.63042
107.69801
107.31638
106.37392
105.3313
104.38461
103.62284
103.10698
102.93252
102.56225
102.52133
102.38709
102.65032
102.4973
102.79991
102.73517
102.90961
103.00101
103.78902
104.37132
105.20932
106.04832
106.79517
107.51042
108.1597
108.81583
109.45094
110.07853
110.58935
110.85477
368.03803
320.40909
283.4698
254.18199
230.73045
211.15661
195.45317
182.27204
171.22113
162.07026
154.06058
147.25947
141.38789
138.84653
136.43428
124.41322
115.3986
108.45962
102.23664
101.89436
102.57337
102.40874
105.21607
107.47929
108.0501
109.8197
111.58799
114.33168
122.6413
148.40906
208.8275
285.94821
266.48537
234.14271
227.42223
240.31973
250.99724
259.99266
260.36949
255.14425
229.20491
201.90416
173.1902
150.19001
135.4694
128.68982
127.55361
126.92406
126.05636
118.50858
117.72835
117.58348
110.57716
102.06951
99.712517
95.011468
96.712247
92.888221
91.499922
91.66283
90.966035
94.699685
96.054684
96.660229
99.280912
101.64107
104.0722
106.48446
108.71161
110.11166
110.66493
110.59795
110.37065
109.42388
108.23248
107.02587
105.98027
105.20922
104.75511
104.55816
104.22497
104.18981
104.17129
104.1727
104.26389
104.36883
104.4918
104.45936
105.13838
105.67118
106.42
107.33514
108.1163
108.89547
109.58399
110.28252
110.95578
111.61928
112.16448
112.44791
367.97275
320.34778
283.41021
254.27156
230.58457
211.16322
195.30668
182.11958
171.01339
161.52653
153.84111
145.99045
141.06698
136.3359
134.51108
125.97172
118.02119
106.9764
100.5229
96.813472
96.689909
96.366402
99.51936
101.63555
101.8354
103.98835
106.96777
110.95179
124.08194
162.44005
244.34495
308.2987
270.14465
227.60326
226.86914
239.44517
246.4902
248.28584
248.91521
237.45811
212.54488
189.22586
166.11059
146.00634
135.99661
131.83012
131.75346
129.91926
131.59244
124.67196
123.98615
123.99467
117.37646
110.57018
99.350768
98.911175
98.183375
93.17721
92.808193
92.214178
91.905308
94.379489
95.04239
96.87138
99.968042
102.52315
105.26859
107.87108
110.39921
112.40741
113.45083
113.58713
113.39285
112.55237
111.30524
109.89437
108.55607
107.4771
106.72733
106.21708
106.05979
105.90967
105.8009
105.78798
105.76376
106.15254
106.06975
106.05657
106.50248
107.01462
107.6924
108.63029
109.45453
110.2947
111.0308
111.77446
112.48984
113.19195
113.78213
114.08165
368.00632
320.43743
283.45923
254.30614
230.50689
211.55458
195.03604
181.87639
170.62694
161.19151
152.94678
145.71813
139.55128
136.64713
131.67132
125.13783
117.88785
107.92009
99.460738
93.804357
92.955596
92.453657
95.469415
97.193892
97.319281
99.558198
103.25649
108.12225
124.97566
185.62468
282.81265
323.05151
249.16388
224.19844
227.79627
235.10681
238.36347
238.27913
236.95093
221.66044
200.05807
181.29088
162.28712
147.16696
140.08217
139.37723
138.69035
136.21533
137.76933
133.73833
130.97959
129.87042
118.7735
118.3992
106.98758
105.57095
103.43603
97.220483
93.799165
92.514237
94.037164
93.883577
95.665851
96.577663
100.24543
103.30392
106.16759
108.98221
111.75881
114.2028
115.98074
116.5433
116.34766
115.65192
114.4578
112.93076
111.33598
109.92629
108.85683
108.14985
107.82724
107.51237
107.40553
107.45791
107.54669
107.64443
107.51382
107.91285
108.04111
108.38029
108.9815
109.9554
110.80344
111.70475
112.49534
113.28738
114.05028
114.79527
115.43193
115.75159
367.88087
320.58657
283.56578
254.59193
230.71652
211.57719
195.14536
181.67842
170.56001
160.60977
152.56167
144.92887
139.10582
134.94785
130.41758
125.72984
115.47002
105.08849
98.815493
93.109885
91.270285
89.720079
92.126765
93.347404
93.450061
95.667748
99.991478
105.63938
125.37698
192.18459
325.0223
342.93409
233.87066
220.05046
228.15378
231.24523
231.23333
230.63134
225.15029
209.38466
191.25128
175.35523
158.51285
150.99586