/*--------------------------------*- C++ -*----------------------------------*\
| =========                 |                                                 |
| \\      /  F ield         | OpenFOAM: The Open Source CFD Toolbox           |
|  \\    /   O peration     | Version:  2406                                  |
|   \\  /    A nd           | Website:  www.openfoam.com                      |
|    \\/     M anipulation  |                                                 |
\*---------------------------------------------------------------------------*/
FoamFile
{
    version     2.0;
    format      ascii;
    arch        "LSB;label=32;scalar=64";
    class       volScalarField;
    location    "200";
    object      p;
}
// * * * * * * * * * * * * * * * * * * * * * * * * * * * * * * * * * * * * * //

dimensions      [0 2 -2 0 0 0 0];

internalField   nonuniform List<scalar> 
16045
(
2309.5756
2317.6264
2335.0623
2362.1284
2392.6547
2419.5336
2438.6175
2450.7246
2460.3465
2472.9934
2492.2198
2519.2815
2553.6795
2594.9599
2645.9066
2704.2847
2758.4596
2805.9636
2849.6636
2889.4634
2932.6243
3005.1426
3131.5694
3320.4433
3551.6503
3779.2674
3939.1285
4017.2885
4040.4094
4050.6349
4077.1788
4137.3163
4267.5626
4557.9201
5089.8416
5862.6248
6766.9577
7619.405
8208.5497
8415.1081
8322.5749
8069.5209
7782.6109
7562.2121
7442.7721
7374.22
7318.1278
7243.4071
7158.8769
7075.8422
6984.2769
6874.174
6741.0281
6589.8641
6430.2642
6253.6735
6026.2446
5766.051
5549.6071
5385.0349
5267.429
5168.4905
5067.1377
4934.5777
4765.2496
4573.9289
4371.6996
4165.952
3959.6166
3756.2732
3557.4422
3363.3
3173.4722
2988.0169
2807.4336
2632.1478
2462.4398
2298.4539
2140.3843
1988.3856
1842.6545
1703.2549
1570.0882
1442.6015
1319.7333
1199.8642
1081.4921
964.14177
849.52794
741.12108
641.7302
549.80957
459.82953
369.73213
289.21274
237.71312
227.52199
258.35855
303.00578
185.27681
2307.7307
2316.5184
2334.8136
2362.5679
2393.7986
2421.2572
2440.9367
2453.7205
2464.508
2478.682
2499.7911
2528.5224
2563.8417
2604.6919
2654.4329
2713.0586
2774.0493
2835.9782
2901.118
2967.1658
3040.5733
3141.2804
3281.9029
3456.6127
3633.1738
3754.487
3794.3327
3759.6454
3685.5532
3624.8553
3610.4493
3649.9801
3800.0546
4167.3796
4808.2512
5687.7991
6681.6477
7612.7707
8270.8187
8510.086
8423.5129
8169.9795
7866.4999
7610.3149
7444.7392
7342.5579
7262.566
7187.2764
7111.2562
7031.9339
6937.4046
6817.9389
6670.9644
6503.6687
6328.8828
6144.5152
5938.6316
5730.6467
5548.4204
5385.9148
5245.7961
5118.6527
4994.7267
4852.9922
4685.3023
4500.5058
4305.2393
4104.8577
3903.6982
3704.4811
3508.5147
3316.5978
3129.1153
2946.4549
2768.9506
2596.8821
2430.4656
2269.9125
2115.3758
1967.0178
1824.9533
1689.2457
1559.678
1435.698
1316.1385
1199.418
1083.9646
969.36963
857.22966
750.97713
653.20388
562.36851
472.90815
383.0033
302.3153
250.06757
237.0862
262.93398
304.95651
192.06522
2303.4239
2312.6836
2331.0013
2358.5335
2389.133
2415.5343
2433.8151
2445.3967
2455.4444
2469.3796
2490.0684
2517.4997
2550.0783
2588.6952
2636.8993
2694.9495
2759.3724
2829.8162
2905.7937
2985.3636
3078.1186
3202.1764
3360.3048
3536.5714
3697.2699
3805.2978
3841.1355
3805.5438
3722.7703
3633.2544
3574.9594
3582.5384
3740.8419
4124.9437
4761.2591
5619.2983
6594.9909
7530.6587
8230.7391
8519.8024
8460.5132
8216.834
7904.434
7621.475
7417.5725
7283.3419
7191.3805
7127.5472
7065.4499
6991.7546
6897.1494
6773.017
6618.2824
6443.0415
6264.786
6085.7974
5894.9492
5704.5379
5532.9217
5372.3022
5222.2765
5081.9463
4945.2932
4794.8864
4624.3821
4441.7127
4251.9814
4057.0864
3859.9629
3663.804
3470.4614
3280.9285
3095.741
2915.2851
2739.9252
2569.9853
2405.6774
2247.2009
2094.7177
1948.3694
1808.2778
1674.4576
1546.6887
1424.343
1306.276
1190.9018
1076.7746
963.54252
852.86517
748.00331
651.3422
561.07336
471.72982
381.81084
301.65504
250.18187
236.4338
257.82068
294.6601
184.99491
2296.9018
2305.9665
2324.2896
2351.5502
2381.4724
2406.8639
2424.1835
2435.3623
2445.7989
2460.5666
2481.8382
2509.0308
2541.8104
2581.8499
2630.6234
2689.1398
2757.8593
2836.6158
2921.8945
3011.2964
3114.4935
3243.9993
3401.2902
3572.4186
3730.8342
3847.6478
3906.35
3898.9474
3832.821
3738.1674
3656.1802
3650.5872
3808.6956
4181.8543
4789.6611
5603.2422
6528.3548
7432.2008
8143.0217
8469.8638
8438.3193
8206.9858
7890.8923
7590.3253
7358.0669
7194.5253
7084.0061
7023.3219
6978.4078
6915.9982
6824.5863
6698.4925
6538.6352
6358.4634
6180.6501
6013.3588
5843.9252
5670.6972
5505.6441
5339.67
5175.0522
5019.7737
4870.6656
4712.5873
4539.8026
4358.1633
4171.7779
3981.6427
3789.4886
3597.5439
3408.0641
3222.3763
3040.9894
2864.2374
2692.4794
2526.0968
2365.3457
2210.4274
2061.4815
1918.6332
1781.9736
1651.4841
1526.9
1407.547
1292.2289
1179.3848
1067.6314
956.74676
848.44442
745.91185
651.23159
562.23301
473.25496
383.2371
303.50019
253.44041
240.08225
257.7082
288.99616
182.83813
2287.3734
2296.4942
2314.6377
2341.3186
2370.1975
2394.2748
2410.3457
2420.8197
2431.1026
2445.8724
2466.4763
2492.623
2525.1085
2564.9927
2613.0355
2671.9497
2743.7268
2826.9077
2913.5764
3000.2195
3095.0645
3207.4762
3343.5278
3495.6946
3645.7488
3770.6953
3850.4877
3877.5606
3852.3998
3793.1287
3735.7019
3752.6334
3923.4906
4284.9163
4852.8076
5601.6996
6454.5259
7301.4374
7997.8493
8350.7083
8353.3235
8150.3531
7849.2091
7552.359
7312.3914
7129.7207
6999.126
6921.0391
6872.7208
6812.1913
6720.1882
6589.9914
6424.3626
6239.3284
6061.5773
5905.3232
5757.8765
5605.2897
5449.5761
5282.0046
5110.3153
4946.4149
4788.2753
4624.4139
4450.4805
4269.8397
4085.3815
3898.5833
3710.8949
3523.6617
3338.588
3157.0757
2979.8538
2807.1161
2639.2735
2476.7124
2319.769
2168.5722
2023.256
1883.9208
1750.6442
1623.3815
1501.8574
1385.369
1272.7037
1162.307
1052.8726
944.28332
838.35973
738.25308
645.81564
558.42809
470.09673
380.04588
300.86406
252.82216
241.27704
256.2799
281.60013
177.10907
2275.3172
2284.0808
2301.924
2327.8612
2355.5261
2378.1232
2392.8442
2402.508
2412.5221
2427.0103
2446.8694
2472.4151
2504.2494
2543.1799
2591.1595
2651.2646
2724.0611
2805.4592
2883.6326
2954.6877
3022.9992
3098.6904
3196.1842
3317.6612
3449.1922
3572.7839
3668.5492
3727.8261
3749.7643
3748.6013
3757.1098
3835.3023
4036.7261
4391.3125
4917.4085
5596.2885
6366.4818
7141.6201
7801.969
8167.4871
8207.3257
8046.3582
7781.198
7513.4581
7290.7254
7103.3211
6955.1638
6849.6728
6776.3231
6698.8712
6595.3122
6456.6123
6284.8045
6096.9046
5921.2762
5774.7058
5644.1794
5508.9994
5361.8156
5196.1599
5022.9834
4853.9344
4688.4127
4519.5706
4345.0692
4166.2804
3984.2837
3800.6726
3617.0621
3434.505
3254.2679
3077.5693
2905.244
2737.5277
2574.5524
2416.6683
2264.2934
2117.5683
1976.5814
1841.4342
1712.1741
1588.7478
1470.8613
1357.8001
1248.338
1140.9274
1034.3028
928.44387
825.27607
727.97657
638.20007
552.88336
465.58764
375.77029
297.34507
251.8725
243.127
256.6726
276.26329
172.69697
2260.1437
2269.0917
2286.3825
2311.3206
2337.5138
2358.3967
2371.6077
2380.3314
2389.9199
2403.7101
2422.7445
2447.0291
2476.9515
2514.2949
2561.5722
2621.613
2692.927
2765.8717
2825.9627
2868.5064
2895.9532
2924.1005
2975.2044
3060.2849
3169.7918
3284.624
3389.319
3478.6011
3553.1436
3625.7245
3719.1483
3871.5311
4112.2247
4468.2019
4953.9569
5560.9933
6246.397
6944.3189
7556.0209
7923.7602
7999.7198
7889.4304
7680.6147
7465.3484
7279.2367
7100.9175
6938.6347
6802.1347
6691.8857
6584.5657
6460.5753
6310.2153
6133.8964
5947.4609
5776.9978
5637.8353
5515.9156
5389.0513
5246.217
5083.7005
4912.3035
4741.7126
4572.3601
4401.0955
4227.1606
4051.0006
3872.6249
3692.9337
3513.6051
3335.9116
3160.6967
2988.957
2821.728
2659.4509
2501.9029
2349.1917
2201.6879
2059.7651
1923.3968
1792.6724
1667.6495
1548.2653
1434.2231
1324.8006
1218.7656
1114.5731
1010.985
908.05401
807.82679
713.55165
626.7405
543.87484
458.00066
368.71171
291.29187
248.77028
243.72942
256.76977
270.84987
166.93447
2242.823
2251.1277
2267.7569
2291.5232
2316.0853
2335.1479
2346.7701
2354.5217
2363.4255
2376.4415
2394.3761
2416.461
2444.2133
2480.1363
2526.1902
2584.8053
2652.0077
2710.7494
2744.2181
2746.2358
2723.2359
2699.0245
2703.1788
2749.5635
2835.4453
2942.4851
3057.2416
3177.1989
3302.4683
3445.6356
3622.4091
3847.8749
4130.5227
4488.9078
4936.414
5475.2821
6079.207
6699.617
7256.124
7618.1544
7726.1663
7672.0789
7535.1983
7388.3949
7250.4892
7092.8988
6921.6725
6755.9615
6606.4518
6465.2212
6318.0602
6155.587
5977.0262
5795.6775
5631.5406
5495.932
5374.9948
5248.6419
5106.9322
4947.9632
4780.2973
4610.8295
4440.521
4268.7692
4096.0239
3922.5998
3748.44
3573.7947
3399.6626
3227.3876
3057.7733
2891.4793
2729.5611
2572.7946
2421.1295
2274.2123
2132.0447
1995.1711
1863.7702
1737.7725
1617.2868
1502.2528
1392.3573
1286.8777
1184.5736
1083.8955
983.6228
883.86913
786.80596
695.79519
612.25544
532.23142
448.19993
359.78882
283.5697
244.23998
243.40168
256.88789
265.82591
160.95401
2222.2894
2230.4553
2246.3795
2268.8464
2291.6728
2308.7997
2318.782
2325.451
2333.3938
2345.6649
2361.7052
2381.1125
2406.7873
2440.5812
2484.6039
2541.3585
2601.3212
2640.96
2641.8602
2597.285
2521.0349
2443.9987
2402.7932
2413.8158
2475.9104
2576.7633
2704.8198
2855.6891
3031.2616
3242.3377
3493.4361
3778.604
4091.3403
4441.3495
4851.3707
5328.1993
5856.3241
6401.4597
6900.2241
7250.4869
7389.0564
7394.0735
7335.7977
7264.1845
7177.6195
7048.7697
6876.9989
6687.9201
6504.3226
6332.0753
6163.6919
5990.7288
5811.978
5637.3288
5479.6661
5344.8348
5220.7203
5091.4431
4949.77
4794.2544
4630.8084
4463.9382
4295.0059
4124.8842
3954.5831
3784.5257
3614.9041
3446.0194
3278.1133
3111.9678
2948.5328
2788.2433
2631.9857
2480.6937
2334.7478
2193.7438
2057.2163
1925.4545
1798.9303
1677.7715
1561.9209
1451.3486
1345.7188
1244.3132
1145.9008
1048.9117
952.15093
855.77645
762.07556
674.5287
594.49456
517.6191
435.81465
348.64734
273.83767
237.73932
241.40191
255.87271
260.15909
153.75275
2199.5247
2207.0359
2222.242
2243.3204
2264.2645
2279.3872
2287.7173
2293.1292
2300.1079
2311.3352
2324.6668
2341.7065
2365.0596
2395.4341
2436.3712
2489.7779
2538.3877
2555.1777
2521.7824
2431.5352
2304.6286
2179.2355
2096.4583
2075.2728
2115.9846
2213.3548
2358.1142
2542.0388
2767.1492
3036.7751
3341.859
3661.6241
3984.616
4319.594
4695.574
5115.8472
5573.8701
6046.4117
6487.5331
6820.7381
6985.742
7049.2048
7070.3423
7073.1342
7039.1881
6942.7079
6778.0739
6574.8144
6367.3837
6172.3905
5988.5504
5809.0459
5632.82
5465.7226
5314.8534
5180.5185
5052.593
4920.1141
4778.3727
4625.7949
4466.3835
4303.1493
4137.5703
3970.973
3804.4334
3638.5673
3473.9324
3311.1226
3150.194
2991.136
2834.5624
2680.9682
2530.8062
2385.0578
2244.5477
2109.2595
1978.4359
1851.8989
1730.1565
1613.7083
1502.521
1396.3879
1295.0488
1197.7721
1103.3468
1010.1917
917.12609
824.35852
734.23811
650.33168
573.945
500.41288
421.1453
335.57927
262.36333
229.449
237.51175
253.40853
253.38758
145.39464
2173.8274
2181.4853
2195.7295
2215.2114
2234.153
2247.287
2254.0218
2258.0663
2264.2733
2273.6074
2284.3047
2299.2868
2319.7103
2346.2514
2383.8156
2430.6781
2463.0629
2455.6657
2390.4819
2260.8502
2089.9729
1923.027
1803.8891
1753.4757
1776.2063
1872.7988
2035.4166
2250.3436
2516.3198
2826.9347
3161.7028
3494.1854
3813.8567
4131.901
4473.8876
4840.7128
5231.6119
5634.113
6018.1922
6332.7937
6521.1988
6639.2361
6735.4542
6807.6412
6824.5646
6759.7809
6607.6788
6402.6198
6185.9022
5979.4986
5787.8406
5607.3449
5437.1053
5278.9508
5135.4719
5002.8163
4872.4817
4737.7599
4595.8898
4445.7413
4290.2855
4131.5599
3970.8281
3809.2414
3647.7099
3487.0418
3328.051
3171.5553
3017.8211
2866.4626
2717.4552
2571.1516
2427.6472
2287.6866
2152.3788
2022.3391
1897.1072
1775.9441
1658.9913
1546.9734
1440.1739
1338.3219
1241.1156
1147.8764
1057.4283
968.20396
879.01238
790.07664
703.73796
623.56325
550.83109
480.6938
404.20786
320.59695
249.16103
219.20265
231.39268
248.75469
245.04271
135.51859
2146.6482
2153.3844
2166.6021
2184.4412
2201.39
2212.5761
2217.7079
2220.4452
2225.6885
2232.6654
2241.4467
2254.1358
2270.8936
2294.0838
2328.4098
2365.2218
2379.5739
2351.6573
2260.7594
2099.9129
1894.2343
1693.4877
1543.4468
1466.6824
1473.3003
1569.244
1744.0873
1983.4209
2278.5828
2610.5703
2952.2232
3279.5878
3584.8848
3881.3717
4185.0863
4499.0238
4824.3166
5161.2637
5494.091
5792.8712
6002.3386
6169.0762
6333.5672
6468.9206
6530.293
6493.7609
6359.7983
6166.5937
5955.6378
5750.5192
5560.6279
5385.5316
5224.8183
5077.2705
4941.4208
4811.6066
4680.7305
4545.139
4403.6219
4256.0355
4104.8062
3951.3062
3796.3981
3640.8268
3485.3314
3330.8124
3178.1861
3028.2824
2881.6195
2738.0772
2597.0494
2458.4787
2322.441
2188.9581
2059.0713
1933.9744
1813.9597
1698.27
1586.3505
1478.6948
1375.9688
1278.1388
1184.8199
1095.4331
1008.8639
923.60743
838.4536
753.56588
671.1763
594.7578
525.57436
458.78303
385.25886
303.95087
234.43429
207.12041
222.87029
241.79695
234.72317
124.21357
2116.6662
2123.1684
2135.4084
2151.6014
2166.5734
2175.829
2179.3242
2180.8039
2184.6922
2189.44
2196.4942
2206.089
2218.5098
2238.2469
2268.3445
2293.841
2293.9341
2251.5384
2142.367
1960.3261
1730.9029
1505.3663
1327.4084
1226.6194
1219.2588
1311.8954
1491.2792
1744.8656
2052.1231
2384.5978
2713.7477
3021.4591
3304.8729
3574.5154
3835.4842
4092.306
4352.4364
4630.6566
4922.3621
5212.8087
5443.8906
5654.1343
5879.627
6065.3735
6160.9998
6151.0226
6042.5773
5873.6771
5681.7307
5490.2268
5311.6052
5148.1178
4999.4463
4863.2658
4734.8651
4608.5648
4478.685
4343.6747
4203.6331
4059.3324
3912.8327
3765.0653
3616.4667
3467.4035
3318.5815
3170.9149
3025.2622
2882.2861
2742.6324
2606.5316
2473.3493
2342.6618
2214.4989
2088.4149
1964.7205
1844.7537
1729.6045
1619.138
1512.4435
1409.3574
1310.5584
1216.5011
1126.8758
1041.0996
958.24529
876.90714
795.89008
715.22067
636.9071
564.21266
498.41586
434.86171
364.44899
285.78526
218.33145
193.23544
211.93398
232.21365
222.63569
111.81772
2085.2119
2090.8734
2102.209
2116.7818
2129.7568
2137.1692
2138.9753
2139.3979
2141.4697
2144.3551
2149.3981
2155.4031
2163.7609
2179.247
2202.0699
2216.3326
2206.6601
2154.1152
2035.0118
1844.7753
1605.5945
1366.4088
1167.1521
1043.6538
1020.8247
1104.5254
1280.2649
1532.4265
1830.8813
2144.1514
2446.3055
2725.635
2981.5658
3216.7978
3428.4343
3622.0093
3819.8303
4049.3077
4314.5343
4606.8379
4858.8669
5110.8396
5388.0759
5609.2914
5730.6026
5747.8947
5671.8284
5536.1353
5373.5322
5205.5901
5045.7634
4898.5693
4763.7195
4638.5539
4517.264
4394.8013
4267.2676
4134.4046
3997.2496
3857.1757
3715.9488
3574.2016
3432.0093
3289.5736
3147.6973
3007.3426
2869.194
2733.6265
2601.1863
2472.2585
2346.6388
2223.6792
2103.2529
1985.034
1868.4078
1754.2181
1643.9716
1538.3986
1436.8436
1338.5926
1243.9272
1153.5981
1067.5359
985.23546
905.93163
828.40637
751.53726
675.19428
601.06774
532.08549
469.53298
409.1125
341.97328
266.33086
201.09559
177.78185
198.67042
220.37972
208.80012
98.982873
2051.4617
2057.2963
2067.4982
2080.3224
2091.3548
2096.9941
2097.2656
2096.6509
2096.8795
2098.4213
2101.2373
2103.983
2109.4595
2120.9057
2134.8735
2138.5922
2119.4672
2059.1989
1939.3315
1754.5327
1521.6085
1280.9247
1069.3227
926.29066
884.46323
950.96854
1112.7317
1346.1908
1618.2383
1896.9477
2161.7575
2407.1798
2627.7822
2818.0454
2969.925
3095.9005
3238.3826
3432.3608
3688.6586
3988.934
4264.3846
4556.9009
4873.8552
5117.0736
5259.7909
5307.5627
5268.7777
5171.7751
5044.4555
4906.1615
4769.7618
4641.3503
4521.3671
4406.4471
4291.6314
4173.2144
4049.1652
3919.8528
3786.8334
3651.7421
3516.1468
3380.4213
3244.4689
3108.5429
2973.637
2840.792
2710.4656
2582.7187
2457.822
2336.1177
2217.7372
2102.1633
1989.1303
1878.5288
1769.447
1661.7953
1556.8314
1455.9452
1359.2355
1265.8818
1175.6095
1089.0505
1006.5544
927.73171
851.90518
778.12683
705.36255
633.36316
563.46126
498.2195
438.85812
381.54715
317.88426
245.67956
182.87288
160.93639
183.38173
206.30024
193.82206
86.435249
2017.1729
2021.9357
2031.0039
2042.1594
2051.3831
2055.3903
2054.282
2052.3952
2051.3312
2051.8623
2052.0499
2051.5472
2054.4829
2062.3825
2068.2504
2062.4417
2034.0484
1969.5643
1856.3964
1688.1715
1475.9668
1245.3821
1030.7007
872.90733
811.483
855.2756
992.04935
1191.3861
1421.9335
1655.1088
1876.6352
2082.7794
2258.3254
2390.0697
2472.1619
2533.99
2634.9455
2813.3736
3074.0548
3382.0527
3681.2247
4008.9378
4349.4331
4604.5413
4769.0559
4850.3752
4852.0967
4796.1528
4705.8734
4599.9088
4489.4153
4380.562
4274.9771
4169.7831
4060.9752
3946.6937
3826.8233
3702.004
3573.9635
3444.3465
3314.4839
3184.5808
3054.5635
2924.897
2796.803
2671.4046
2549.0147
2429.3985
2312.4164
2198.2454
2087.0254
1978.6293
1872.6727
1769.1324
1667.5276
1566.89
1467.6971
1371.4985
1279.2753
1190.6583
1104.9558
1022.3395
943.44382
868.1245
795.79963
725.73328
657.05922
589.42598
523.8064
462.34973
406.22316
352.10919
292.1874
223.86077
163.75522
142.93136
166.36227
190.69064
177.72629
74.544632
1980.795
1985.3215
1993.3804
2002.9618
2010.5079
2012.9044
2010.5413
2007.3695
2005.1062
2004.2086
2001.8268
1998.398
1998.8615
2003.2008
2002.4351
1987.9834
1951.1318
1885.2552
1783.1619
1638.1613
1456.8204
1249.856
1039.8825
874.11212
797.11122
817.76685
923.45191
1080.881
1261.3803
1443.9421
1621.376
1781.7181
1899.0117
1957.2503
1966.007
1977.4954
2055.3728
2231.8933
2494.2328
2802.6164
3128.1415
3485.6496
3831.1766
4091.0964
4278.3978
4395.2587
4438.8202
4423.6935
4369.6681
4295.2313
4210.5609
4120.9214
4028.5704
3932.2872
3829.2975
3719.1913
3603.7617
3483.7849
3361.0307
3236.9488
3112.5766
2988.0898
2863.6389
2739.9452
2618.4205
2500.2797
2385.7581
2274.3333
2165.4836
2059.1186
1955.1707
1853.7612
1754.6301
1657.7372
1563.0902
1469.4927
1376.4935
1285.237
1197.2569
1112.9846
1031.7614
953.20856
877.91984
806.11548
737.31681
670.91341
606.25608
542.97009
481.72423
424.19987
371.44765
320.68556
264.77377
200.74247
143.66581
123.86708
148.02345
173.58587
160.97176
63.29209
1943.8474
1947.4604
1954.6496
1962.7933
1968.7068
1969.5803
1966.1577
1961.7883
1958.2979
1955.884
1951.5026
1946.1077
1944.8507
1945.8777
1940.0708
1917.176
1871.5472
1804.9913
1717.0366
1597.9658
1451.5658
1275.8701
1080.0127
915.67641
830.95693
832.88217
907.12722
1022.3958
1153.0809
1287.3817
1420.4759
1526.4605
1572.9348
1551.0799
1493.7272
1470.6456
1536.444
1708.7412
1959.7276
2266.6823
2619.4868
2996.645
3333.9095
3596.4508
3805.8588
3957.6865
4042.5365
4066.6544
4046.194
3999.2361
3937.0624
3865.2126
3785.2551
3696.7605
3599.6787
3493.6973
3382.5509
3267.2525
3149.5837
3030.6887
2911.3651
2791.8538
2672.5853
2554.5393
2439.3014
2328.1161
2221.1968
2117.7766
2017.1232
1918.7273
1822.2437
1727.7926
1635.3937
1544.9552
1456.6707
1369.7904
1283.1168
1197.0936
1113.3648
1033.1145
956.11415
881.66546
810.05506
741.7444
676.4242
613.61246
552.85392
493.83017
436.98545
383.57695
334.4568
287.26722
235.59176
176.19926
122.52296
103.86973
128.58905
155.67606
143.40863
52.386848
1905.3694
1909.2411
1915.3243
1921.9795
1926.377
1925.8902
1921.5145
1916.4297
1912.2226
1908.0823
1901.5057
1894.3881
1891.4829
1890.123
1880.9483
1851.3401
1799.5318
1735.1608
1662.1786
1563.3278
1452.1832
1308.6382
1133.3699
981.51019
899.81144
890.69981
934.62203
1008.9472
1097.0296
1190.7519
1278.249
1323.8873
1295.4542
1198.8307
1089.2462
1038.5913
1089.7842
1245.1964
1475.1415
1784.2874
2163.7328
2547.9552
2870.4357
3136.5923
3365.5009
3548.1675
3670.9904
3732.2272
3742.636
3718.9872
3674.3941
3616.6626
3548.0609
3466.9682
3374.9241
3273.222
3165.9708
3054.8911
2941.7141
2827.3661
2712.5173
2597.4774
2482.959
2370.2426
2260.9958
2156.436
2056.7255
1960.994
1868.3339
1777.8261
1688.8883
1601.3877
1515.5055
1431.3467
1349.0324
1268.2974
1187.8286
1107.2346
1027.8884
951.51335
878.46543
808.02377
740.11017
675.25295
613.39551
554.13039
497.12088
442.18991
389.65093
340.44762
295.21358
251.88004
204.64744
150.12982
100.1923
82.964524
108.38691
136.82067
125.50914
41.695744
1867.2388
1869.9985
1875.0314
1880.3781
1883.4421
1881.773
1876.5706
1870.9205
1866.0805
1860.2031
1851.7078
1843.4984
1839.2824
1835.353
1822.176
1788.602
1736.6946
1678.1774
1617.9967
1535.3738
1452.7155
1336.6252
1183.145
1052.9564
987.10489
974.27483
988.53548
1022.6365
1073.1462
1131.8745
1176.2278
1163.2825
1064.3865
904.43849
753.52239
675.55828
704.27961
830.39931
1042.7932
1367.5566
1770.4656
2149.5422
2458.5981
2728.5092
2970.539
3176.4254
3329.9855
3424.2455
3463.8554
3461.3766
3429.7892
3380.5139
3319.8145
3245.5445
3157.3415
3060.351
2956.067
2848.4888
2738.9567
2628.3824
2517.3337
2406.1576
2295.7674
2187.8428
2084.2098
1985.9716
1893.1237
1804.78
1719.7436
1636.8848
1555.412
1474.8417
1395.3397
1317.2834
1240.7312
1165.5886
1090.9745
1015.8261
940.96317
868.36146
799.06017
732.50482
668.29539
606.90975
548.5212
492.76539
439.41619
388.41588
340.04048
295.05411
253.88047
214.63304
172.0112
122.53571
76.648432
61.231832
87.535977
117.64899
107.21631
31.198868
1827.7128
1830.2967
1834.4304
1838.6037
1840.4961
1837.8014
1831.9308
1825.7988
1820.5619
1813.6737
1803.5464
1794.2822
1788.545
1781.6311
1765.5908
1732.0429
1685.1639
1639.2394
1587.2495
1523.286
1457.556
1357.6347
1224.0322
1122.0406
1080.4159
1062.5317
1047.8994
1049.1839
1068.0662
1095.5038
1098.6401
1029.2005
869.66161
662.05876
475.3096
367.16493
366.46898
461.68667
672.69149
1026.7425
1448.9812
1819.4237
2119.3253
2389.8962
2635.2627
2852.0847
3025.4287
3145.6245
3211.9633
3230.3744
3209.9808
3163.7908
3104.5543
3034.4641
2950.0485
2856.5376
2754.5328
2649.9002
2543.1675
2435.6329
2327.7927
2219.9889
2113.2268
2009.4772
1910.8226
1818.3729
1731.9451
1650.5312
1572.6568
1497.0858
1422.7501
1348.9461
1275.6901
1203.4236
1132.3434
1062.3811
993.081
923.22577
852.87713
783.99441
718.23899
655.41679
594.88036
536.93712
481.98658
429.74263
380.03625
332.8652
288.52793
247.71231
210.70177
175.70581
137.78975
93.408805
51.839892
38.694811
66.24844
97.887354
89.031334
21.047232
1788.3424
1790.0122
1793.4137
1796.5622
1797.3696
1793.8227
1787.573
1781.2818
1775.6107
1767.8039
1756.4418
1746.1416
1738.1179
1727.4936
1711.1183
1682.727
1645.3663
1614.0457
1568.8374
1521.6743
1467.429
1376.2135
1263.0008
1192.2527
1169.6015
1140.1379
1102.548
1081.9324
1079.3623
1078.7372
1038.0642
916.52878
711.33717
471.11373
256.15498
123.44957
94.8073
166.51304
393.68264
785.27965
1222.2055
1581.8766
1871.4643
2135.0368
2372.6472
2586.1247
2764.9901
2899.8513
2986.3498
3024.1987
3016.4065
2972.9586
2909.699
2837.1863
2754.9433
2662.3085
2563.014
2460.3214
2355.6485
2250.505
2145.3503
2040.5527
1937.0446
1836.8336
1742.2301
1654.7419
1574.1373
1499.1008
1427.9403
1359.2279
1291.6261
1224.3208
1157.0941
1090.2915
1024.3751
959.30375
894.79177
829.87989
763.93934
698.65235
636.18038
576.87601
519.98301
465.48565
413.97186
365.26943
319.16809
275.79172
235.43518
198.75053
165.96319
135.34349
102.172
62.843542
25.756601
15.391636
44.514396
78.005934
70.845023
11.324976
1748.01
1750.05
1752.4613
1754.5064
1754.4032
1750.1938
1743.7648
1737.458
1731.4569
1723.3346
1711.8092
1700.6435
1689.8661
1676.7135
1661.687
1639.7721
1615.6275
1593.7884
1556.5966
1522.1794
1479.7245
1400.7444
1314.2136
1274.5272
1255.3561
1209.7318
1157.9081
1125.9236
1110.7709
1083.764
999.90352
836.53494
603.28856
347.29201
122.2812
-20.726195
-71.315202
-8.1446623
252.48938
679.1177
1116.8332
1457.3487
1724.4438
1966.3563
2186.1318
2384.5935
2554.7485
2690.8276
2786.8119
2838.3051
2843.3353
2806.3289
2739.7621
2659.5063
2573.8658
2479.8146
2382.4457
2280.5127
2177.5308
2074.2162
1971.2951
1869.1842
1768.637
1671.486
1580.2085
1496.8042
1421.2229
1351.9133
1286.9482
1224.5725
1163.2397
1102.0091
1040.4191
978.68632
917.42727
856.88985
796.74179
736.20079
674.46791
612.66392
553.24427
497.20708
443.85264
392.7805
344.62689
299.44868
256.97426
217.39465
180.99034
148.41498
119.8772
93.699711
65.285483
30.949547
-1.5523015
-8.6778522
22.47875
57.689549
53.062474
2.1657592
1708.5369
1709.499
1711.0774
1712.1745
1711.3346
1706.7154
1700.2492
1694.1133
1688.1624
1680.2009
1669.6639
1658.3664
1645.3087
1631.1754
1618.1662
1601.5109
1591.2435
1571.8612
1542.7661
1518.6017
1487.934
1429.5105
1375.969
1358.8389
1332.1258
1275.1383
1218.7085
1186.5991
1165.187
1114.0029
995.12123
804.61689
563.27748
311.53321
95.536787
-45.844014
-102.4029
-13.922506
292.09057
727.94852
1140.9944
1448.4025
1676.2208
1879.2417
2070.2271
2245.4314
2396.7806
2522.2372
2616.2637
2672.1052
2684.9968
2655.2421
2589.9718
2503.6142
2409.9578
2311.8509
2212.7162
2111.147
2009.4979
1907.4708
1806.3957
1706.7321
1608.9696
1514.5983
1426.0624
1345.786
1274.2654
1209.9449
1150.6025
1094.023
1038.4427
982.73862
926.3067
869.22696
812.12824
755.63125
699.42844
642.72301
584.81423
526.31876
469.69711
416.59741
366.57626
318.9081
274.08477
232.41486
193.59726
157.8167
125.39168
96.929268
72.653106
50.928006
27.250438
-2.1151111
-29.922842
-33.441866
0.042639756
37.241364
35.407545
-6.4253478
1667.9815
1668.8869
1669.9047
1670.24
1668.8465
1663.8245
1657.1744
1651.0418
1645.0992
1637.7312
1629.1918
1619.2417
1606.2396
1591.707
1579.5049
1567.6829
1567.2196
1551.3402
1526.5311
1509.3858
1490.4936
1455.082
1429.5762
1420.7569
1389.4649
1336.6848
1291.0964
1267.5512
1241.2261
1171.7089
1033.7668
836.16853
605.74279
374.63809
182.37266
58.619763
23.56409
163.79659
494.17427
903.99433
1271.9817
1533.9232
1710.9931
1862.448
2013.1125
2157.6943
2284.9319
2393.4728
2477.5873
2528.9605
2541.8126
2514.7768
2451.6699
2363.2522
2263.2515
2159.3841
2053.938
1952.2372
1851.4988
1750.452
1650.9662
1553.5892
1458.5417
1366.8354
1280.686
1202.8558
1134.5503
1074.4356
1020.0314
968.63529
918.23864
867.47598
815.66636
762.72225
709.21256
656.0506
603.24932
549.87805
495.23375
439.80539
385.74026
335.25997
288.36958
244.05576
202.50693
164.27474
129.16246
97.205021
68.789807
44.442672
24.427959
7.1329074
-11.853006
-36.250858
-59.22591
-58.837931
-22.763919
16.356606
18.225116
-14.434346
1627.7588
1627.8577
1628.6535
1628.5909
1626.8232
1621.5764
1614.7441
1608.5044
1602.4429
1595.6862
1588.9339
1581.3643
1570.4259
1556.5039
1543.8828
1537.203
1540.1212
1529.0789
1508.572
1501.1986
1493.854
1471.8453
1456.7915
1448.5028
1429.2506
1399.2254
1375.1504
1363.0284
1334.1329
1258.9238
1121.8864
937.20105
732.59597
534.91192
377.53322
283.89468
289.57709
471.50952
789.87375
1149.4733
1465.2533
1678.8545
1804.8363
1900.9139
2001.6938
2108.0756
2208.2119
2298.2634
2370.0913
2412.2544
2418.1556
2387.1746
2323.0494
2234.1921
2131.8104
2022.9144
1909.6536
1804.0302
1703.4867
1603.3944
1505.2762
1410.1479
1317.8688
1228.9099
1145.0256
1069.1317
1003.127
946.31695
896.0898
849.24527
803.39746
757.0024
709.2272
659.83434
609.33895
558.7931
508.66528
458.10278
406.23723
353.43529
301.63298
253.40483
209.35088
168.25865
129.93588
95.183326
63.825436
35.613416
11.245517
-8.9471484
-24.695859
-37.594132
-51.926708
-71.334631
-89.326308
-84.797216
-46.007753
-4.6285909
1.1358618
-21.970623
1586.5282
1587.3625
1587.7132
1587.5079
1585.5358
1580.2678
1573.3015
1566.8059
1560.3262
1553.9207
1548.6141
1544.0668
1536.1507
1524.7252
1513.6795
1512.3361
1511.0408
1503.2519
1494.654
1499.5988
1497.8225
1481.0631
1470.3321
1472.0574
1475.4112
1470.3226
1465.4985
1464.8344
1440.8125
1372.9246
1252.8288
1095.4557
924.99879
768.75806
653.06557
595.09237
641.33036
831.92781
1106.9255
1404.1189
1669.1873
1844.2962
1932.0861
1979.1563
2025.0216
2082.5276
2151.0852
2224.4166
2286.2973
2319.7134
2315.787
2276.431
2207.0657
2115.0943
2010.8658
1899.9424
1782.0277
1668.3314
1564.4437
1465.5103
1369.1652
1276.3861
1186.9689
1100.8845
1019.3199
945.06739
880.72648
826.41899
779.59669
736.65158
694.77242
652.16875
607.79571
561.30261
513.17421
464.49424
416.13278
367.72375
318.1166
267.36687
217.49549
171.20013
129.66209
91.650413
56.574142
25.264153
-2.4492726
-26.853745
-47.144959
-63.174163
-74.676151
-83.210417
-92.91532
-107.29907
-120.14753
-111.26757
-69.602272
-25.959876
-15.634961
-29.123103
1546.1381
1546.2332
1546.5383
1546.5993
1544.7252
1539.6432
1532.7694
1525.901
1518.7299
1512.1111
1507.7244
1505.4182
1500.5598
1492.4226
1484.2008
1484.3813
1480.5534
1478.2325
1482.114
1492.1035
1494.3249
1492.68
1500.7226
1519.3066
1535.0893
1542.8381
1552.6838
1565.3453
1554.4882
1503.6443
1408.8502
1285.4731
1152.6149
1041.7667
969.7794
947.79938
1019.4017
1184.3905
1399.2173
1631.5657
1848.4954
1998.9459
2067.7318
2081.1283
2075.7541
2078.6733
2105.5896
2155.8432
2210.0866
2241.0184
2230.7434
2182.755
2105.3516
2006.6052
1897.5757
1785.3747
1667.95
1548.0407
1436.4725
1336.738
1242.7976
1152.6365
1066.1068
983.032
904.08618
831.54823
768.36224
715.70234
671.37242
631.50776
592.92643
553.46816
511.85429
467.63853
421.24295
373.74596
326.30103
279.16859
231.21587
182.06179
133.61325
88.861478
49.460977
14.336059
-17.562345
-45.532889
-69.623829
-90.162252
-106.4186
-118.23159
-125.49676
-129.69056
-134.7842
-144.07546
-151.61735
-138.21629
-93.574893
-47.339424
-32.465208
-36.0562
1504.7121
1505.0484
1505.8416
1506.3098
1504.7202
1499.7491
1493.1796
1486.1779
1478.5803
1471.4489
1467.5543
1466.3713
1463.6109
1458.0016
1453.0741
1454.5219
1454.6636
1457.4793
1467.2893
1478.9757
1491.3456
1514.8073
1546.7282
1574.4892
1591.6623
1607.1107
1630.6941
1660.3156
1668.3181
1637.5551
1569.1366
1486.1307
1395.8849
1330.7326
1299.2179
1307.1273
1380.4283
1499.677
1653.6995
1825.5315
1995.8638
2128.2011
2192.4953
2191.5123
2147.0715
2094.0545
2069.1921
2087.9703
2130.4344
2162.6885
2154.8251
2101.9033
2016.5533
1908.2095
1790.3032
1673.4829
1558.4004
1440.7943
1323.5566
1219.1885
1126.4536
1038.8961
955.20692
875.20853
799.20488
728.6807
666.43479
614.63812
571.90038
534.2997
498.29088
461.3245
421.87819
379.35097
334.02878
286.99061
239.6158
192.76318
145.74636
97.6604
50.072277
6.4279242
-31.199122
-63.628829
-92.403831
-117.14384
-137.73121
-154.28038
-166.50072
-174.09884
-177.1495
-177.01394
-177.49313
-181.62186
-183.70523
-165.60378
-117.82285
-68.985831
-49.141759
-42.877245
1463.7698
1463.8274
1465.3045
1466.3808
1464.9691
1460.1434
1453.8172
1447.0586
1439.5195
1432.5256
1428.83
1428.3387
1427.0782
1423.542
1421.6613
1426.0517
1432.2904
1441.1027
1456.2138
1471.2638
1491.3431
1529.85
1576.6239
1612.7839
1636.7989
1663.2141
1699.7544
1746.136
1774.5018
1760.5424
1718.8469
1687.5352
1649.458