/*--------------------------------*- C++ -*----------------------------------*\
| =========                 |                                                 |
| \\      /  F ield         | OpenFOAM: The Open Source CFD Toolbox           |
|  \\    /   O peration     | Version:  2406                                  |
|   \\  /    A nd           | Website:  www.openfoam.com                      |
|    \\/     M anipulation  |                                                 |
\*---------------------------------------------------------------------------*/
FoamFile
{
    version     2.0;
    format      ascii;
    arch        "LSB;label=32;scalar=64";
    class       surfaceScalarField;
    location    "200";
    object      phi;
}
// * * * * * * * * * * * * * * * * * * * * * * * * * * * * * * * * * * * * * //

dimensions      [0 3 -1 0 0 0 0];

oriented        oriented;

internalField   nonuniform List<scalar> 
39940
(
0.74737874
0.0019929905
0.73927936
0.0082145229
0.72919924
0.011029954
0.7170837
0.013029348
0.70286331
0.014327552
0.68643252
0.014837064
0.66765372
0.014589815
0.64628157
0.013475257
0.62179886
0.01135499
0.59312032
0.007801012
0.55814602
0.0025488536
0.51494114
-0.0051691435
0.46369964
-0.016437901
0.41116873
-0.035261449
0.38080172
-0.087594427
0.39941568
-0.20531551
0.47086369
-0.37317117
0.58145074
-0.54029814
0.72103272
-0.67263798
0.88373676
-0.79158167
1.0504169
-0.93540674
1.2036869
-1.0500833
1.3600014
-1.0227769
1.5707331
-0.78873093
1.8484504
-0.29870907
2.0966925
0.2205954
2.2784378
0.6034166
2.3951632
0.83120492
2.4550406
0.9248023
2.4664059
0.89946795
2.4375856
0.73217191
2.3548182
0.31365525
2.1510914
-0.48397974
1.7938447
-1.5249454
1.3242499
-2.6405082
0.84487423
-3.6499959
0.45471135
-4.3048036
0.19304411
-4.4133271
0.046637184
-4.0310786
-0.027214369
-3.4187787
-0.062062118
-2.805345
-0.066270263
-2.2558679
-0.048691588
-1.7551302
-0.023762771
-1.2714976
-0.012673591
-0.78121873
-0.019760317
-0.31099879
-0.039151938
0.092043428
-0.10890125
0.3103939
-0.20407351
0.38518968
-0.30255449
0.43627882
-0.4030875
0.50697447
-0.50921907
0.60375648
-0.62139146
0.72517502
-0.73238882
0.86247531
-0.82208313
0.9835935
-0.85416875
1.013485
-0.78906787
0.83081928
-0.67525298
0.38406911
-0.71213127
-0.028148075
-0.82297317
-0.015632682
-0.89892814
-0.0076719911
-0.96759075
-0.06925038
-1.0376478
-0.12077597
-1.1083637
-0.17303681
-1.1791722
-0.22835768
-1.2476596
-0.28189273
-1.3123354
-0.33310382
-1.3722737
-0.38162333
-1.4272277
-0.42757527
-1.4768148
-0.47073052
-1.5213212
-0.51161903
-1.5607915
-0.55000494
-1.5956844
-0.5861606
-1.6260074
-0.61975788
-1.6521086
-0.65103503
-1.673965
-0.67965741
-1.6919522
-0.70587753
-1.7060612
-0.7293797
-1.7166726
-0.75042462
-1.7237991
-0.76872822
-1.7278245
-0.78462669
-1.7287518
-0.79791356
-1.7269454
-0.80895125
-1.7223992
-0.81754796
-1.71548
-0.82405639
-1.7061896
-0.8282743
-1.6948778
-0.83053952
-1.6814995
-0.83064644
-1.666347
-0.82893068
-1.6493663
-0.82520704
-1.6309466
-0.81985066
-1.6112104
-0.81274842
-1.59066
-0.80435268
-1.5693516
-0.79464953
-1.5476779
-0.7840475
-1.5262348
-0.77249822
-1.5065216
-0.76076038
-1.4892986
-0.74977862
-1.4726056
-0.7410402
-0.73620549
0.74741888
0.0042720189
0.73926607
0.015478924
0.72852536
0.021054161
0.71547553
0.025553681
0.70020239
0.02922287
0.68270349
0.032160376
0.66283108
0.034405494
0.64038012
0.035979269
0.61488762
0.036872453
0.58537925
0.037213714
0.55010471
0.037525273
0.50672507
0.037661065
0.45851034
0.031233458
0.42010566
0.0028140351
0.41856596
-0.086216826
0.47252971
-0.25945149
0.57141484
-0.47237404
0.69652351
-0.66601659
0.84505152
-0.82197024
1.019812
-0.96728211
1.1966071
-1.1129911
1.3431591
-1.1970989
1.4615858
-1.1413772
1.5813087
-0.90843959
1.7811165
-0.49847485
2.0185464
-0.017000904
2.2276578
0.39400922
2.3837996
0.67476523
2.4862968
0.82206561
2.5477857
0.83762401
2.5820242
0.69738998
2.5741431
0.32041485
2.4591247
-0.37024197
2.1908493
-1.2580775
1.7803064
-2.2313134
1.3068722
-3.1778297
0.88476958
-3.8839112
0.5797988
-4.1097813
0.38562308
-3.8387251
0.25906433
-3.2945587
0.16539501
-2.7143101
0.10537101
-2.1985639
0.080915042
-1.7331852
0.085431176
-1.2780589
0.099990531
-0.79715569
0.057032523
-0.27140247
-0.031290788
0.17547104
-0.12647281
0.40101284
-0.22954105
0.48427931
-0.32796194
0.53159891
-0.42154342
0.59852177
-0.51631468
0.69742447
-0.61777119
0.826356
-0.72127591
0.96628689
-0.79952916
1.0622269
-0.806251
1.0199014
-0.72263244
0.74633062
-0.65475704
0.31440007
-0.75672821
0.071758488
-0.87192967
0.098070075
-0.95155819
0.071735337
-1.0300645
0.0096318533
-1.10428
-0.045397323
-1.1746553
-0.10155947
-1.2440706
-0.15763396
-1.3115395
-0.21350975
-1.3757624
-0.26793218
-1.4362446
-0.32064396
-1.4922425
-0.37102556
-1.5437099
-0.41906771
-1.5903682
-0.46463358
-1.6324626
-0.50787522
-1.6699119
-0.54850842
-1.7030698
-0.5866623
-1.7318911
-0.62209724
-1.7567305
-0.65495005
-1.7775402
-0.68501088
-1.794676
-0.71242113
-1.8081009
-0.73698133
-1.8181708
-0.75886287
-1.8248721
-0.77793077
-1.8285634
-0.79444439
-1.8292099
-0.80833445
-1.8271397
-0.81987639
-1.8223008
-0.82899725
-1.8149985
-0.83595593
-1.8051524
-0.84066804
-1.7930178
-0.84337329
-1.778467
-0.84397314
-1.7617213
-0.84270074
-1.7426873
-0.8394881
-1.7216713
-0.83460906
-1.6986761
-0.82809597
-1.673883
-0.82032299
-1.6472241
-0.81135438
-1.6192179
-0.80131314
-1.5906857
-0.79053989
-1.5620364
-0.77996855
-1.5331516
-0.77129124
-0.7647834
0.74741894
0.0063607897
0.73944461
0.022830351
0.72863925
0.031312082
0.71539272
0.038392356
0.69984057
0.044538602
0.6820116
0.049908987
0.66185835
0.054628654
0.63921909
0.058765861
0.61385747
0.062372263
0.58516151
0.06592124
0.55163435
0.070819877
0.51122133
0.077712524
0.46590053
0.076090118
0.43649312
0.031924671
0.45404211
-0.10390157
0.52724739
-0.33277616
0.63754334
-0.5829351
0.7715363
-0.80050465
0.9336224
-0.98479785
1.1210305
-1.1555394
1.3038458
-1.2966051
1.4555264
-1.3494143
1.5777456
-1.2639904
1.6962282
-1.0271356
1.8587673
-0.66125981
2.06667
-0.22526004
2.2726061
0.1876366
2.4450012
0.50197983
2.5775106
0.68928173
2.6764088
0.73848074
2.7436091
0.62962944
2.7523402
0.31096388
2.6505647
-0.26949124
2.4095191
-1.0181895
2.0397312
-1.862659
1.593386
-2.7324318
1.16787
-3.4592289
0.84474297
-3.7876225
0.63506315
-3.6303997
0.49673907
-3.1580491
0.38264528
-2.602433
0.28679878
-2.1050258
0.21778018
-1.6659849
0.17935255
-1.240715
0.16715093
-0.78740616
0.14899095
-0.25645458
0.10653553
0.21463178
0.025547352
0.47836407
-0.092292982
0.59900055
-0.21262142
0.64984368
-0.3230604
0.70781005
-0.43028275
0.80420461
-0.53946946
0.93562908
-0.63869298
1.065846
-0.69432243
1.1180762
-0.67296353
0.99844946
-0.60426024
0.67713921
-0.62181496
0.33157191
-0.75906962
0.20883894
-0.86713216
0.20606431
-0.9551023
0.15967346
-1.0437005
0.098653609
-1.1266441
0.038177268
-1.2018462
-0.025437569
-1.2722076
-0.08641246
-1.3397902
-0.14503519
-1.4040717
-0.2030097
-1.4645764
-0.25955013
-1.5209871
-0.31427952
-1.5729486
-0.36678594
-1.6204483
-0.41699277
-1.6634404
-0.46469958
-1.7020637
-0.5098441
-1.7364034
-0.55222511
-1.7666657
-0.59186575
-1.7929442
-0.62863757
-1.815449
-0.66258925
-1.8342855
-0.69359653
-1.8496598
-0.72172531
-1.8616662
-0.74689758
-1.8705226
-0.7692138
-1.8763368
-0.78868965
-1.8793088
-0.80551967
-1.8795147
-0.81976261
-1.8771227
-0.83160964
-1.8721824
-0.84110349
-1.86483
-0.84841019
-1.8550699
-0.85354658
-1.8429794
-0.85664952
-1.8285299
-0.85771359
-1.8118294
-0.85687274
-1.7929411
-0.85416299
-1.7720299
-0.84981199
-1.7490799
-0.84400535
-1.7241565
-0.83694683
-1.6976771
-0.8285073
-1.670443
-0.81888749
-1.6430788
-0.80897875
-1.6152301
-0.80028485
-0.79286463
0.74751294
0.0086589921
0.73985767
0.029857852
0.72912489
0.041508253
0.71575116
0.051372073
0.69994567
0.060091728
0.6817734
0.067991896
0.66115397
0.075286835
0.63793878
0.08210045
0.61175316
0.0886559
0.58210767
0.095536289
0.54770713
0.10500994
0.50910554
0.11583907
0.46918149
0.11558195
0.4540544
0.046811822
0.49295191
-0.14287846
0.58187398
-0.42175002
0.70081901
-0.70204391
0.84775226
-0.94780179
1.0310122
-1.1686074
1.2346198
-1.3598182
1.4228482
-1.4854735
1.5766572
-1.5037234
1.7025859
-1.3902308
1.8232782
-1.148012
1.9671597
-0.80531941
2.1463649
-0.40477815
2.3398591
-0.006284237
2.5188
0.3226634
2.6711584
0.53661026
2.7943812
0.61489679
2.8812038
0.54237317
2.9028353
0.28841179
2.8207956
-0.1885459
2.6156107
-0.81417091
2.2889168
-1.5370201
1.8764803
-2.3208372
1.4577115
-3.0411105
1.1149574
-3.4455249
0.87658757
-3.3929551
0.71500278
-2.9978359
0.58239205
-2.4715507
0.45956491
-1.9839726
0.35399316
-1.5619929
0.27429468
-1.1626818
0.22710422
-0.74131288
0.20085115
-0.23319345
0.17400176
0.2368257
0.12559456
0.52296151
0.029106828
0.69238423
-0.093928668
0.77063432
-0.21832506
0.83093299
-0.34277117
0.92802766
-0.46339967
1.0559716
-0.55734383
1.1596664
-0.59322501
1.1538592
-0.56517578
0.97037213
-0.54183934
0.65410922
-0.62031154
0.41049623
-0.75685353
0.34562774
-0.86717475
0.31626183
-0.96477318
0.25711467
-1.0599487
0.19369296
-1.1493403
0.12765451
-1.2314446
0.056863568
-1.3050351
-0.012399421
-1.3727069
-0.076851424
-1.4367053
-0.13836058
-1.4971158
-0.19858097
-1.5535327
-0.25734772
-1.6058015
-0.31419247
-1.6537868
-0.36872167
-1.6975293
-0.42080111
-1.737036
-0.47016749
-1.772486
-0.51670549
-1.8039802
-0.56028046
-1.8317127
-0.60090662
-1.8557806
-0.63849123
-1.8763787
-0.67304688
-1.8936018
-0.70451101
-1.9076372
-0.73293936
-1.9185807
-0.75830254
-1.9266293
-0.78073532
-1.931875
-0.80032735
-1.9344813
-0.81728467
-1.9344999
-0.83171094
-1.9320577
-0.84378823
-1.9271692
-0.85358722
-1.9199068
-0.86125245
-1.9102255
-0.86681284
-1.898162
-0.87036545
-1.8836994
-0.87191594
-1.8669579
-0.87158566
-1.8479866
-0.86949476
-1.8268206
-0.86591257
-1.8034224
-0.86094531
-1.778153
-0.85444483
-1.751728
-0.84645405
-1.7245663
-0.83753972
-1.6968209
-0.82932675
-0.82123068
0.74757692
0.010736744
0.74005788
0.036937699
0.72945164
0.051747198
0.71614155
0.064410467
0.70034154
0.075754689
0.68212811
0.08619866
0.66144315
0.096080326
0.63820326
0.10549817
0.61205523
0.11491955
0.58264501
0.12491071
0.54882136
0.13859031
0.51235352
0.15195424
0.47931773
0.14813155
0.47929328
0.046604227
0.53456255
-0.19820702
0.63189165
-0.51911406
0.75850778
-0.82879301
0.92368727
-1.1132816
1.1280221
-1.3734085
1.3416155
-1.573952
1.5317487
-1.6761278
1.685826
-1.6581875
1.8122397
-1.5168431
1.930746
-1.2665426
2.0618065
-0.93637405
2.2184934
-0.5615573
2.3951237
-0.18306306
2.5722574
0.14539812
2.7332078
0.37559544
2.8682115
0.47985077
2.965233
0.44505784
2.9996224
0.25359244
2.9397671
-0.12940895
2.768411
-0.64370403
2.4844951
-1.2539622
2.114208
-1.9511712
1.7183045
-2.6455978
1.3690739
-3.0966503
1.1050089
-3.1294784
0.91531257
-2.8091173
0.76091034
-2.3185371
0.61219452
-1.8368177
0.47079903
-1.421864
0.35004788
-1.0427224
0.26080324
-0.65455024
0.19919762
-0.17469091
0.16690052
0.26624113
0.13209146
0.55532037
0.064981137
0.75817246
-0.033653766
0.86904509
-0.15715244
0.95466157
-0.29323109
1.0643083
-0.41837153
1.1811449
-0.50137966
1.2425898
-0.52259452
1.1750019
-0.50711364
0.9550838
-0.53508467
0.68269678
-0.64642432
0.52273272
-0.77502508
0.47488935
-0.88360902
0.42508282
-0.98329171
0.35671289
-1.0773664
0.28762109
-1.1657577
0.21587859
-1.2502074
0.14125965
-1.3287354
0.066201862
-1.3988644
-0.0064385909
-1.462659
-0.074182637
-1.5225193
-0.13828359
-1.5785944
-0.20090705
-1.6306762
-0.26178992
-1.6787356
-0.3204465
-1.7227344
-0.37660564
-1.762729
-0.43004544
-1.7988358
-0.48047583
-1.8312401
-0.52781472
-1.8600715
-0.57200939
-1.8854962
-0.61305424
-1.9076301
-0.65089056
-1.9266345
-0.68553035
-1.9426171
-0.7169653
-1.9557187
-0.74524897
-1.9660478
-0.77043684
-1.9737526
-0.79269184
-1.9789219
-0.81217955
-1.9816596
-0.82910426
-1.9820119
-0.84360953
-1.9800361
-0.85585389
-1.9757231
-0.86593131
-1.9690648
-0.87394391
-1.9600117
-0.87992124
-1.9485772
-0.88391288
-1.9347999
-0.88595743
-1.9187665
-0.88621017
-1.9004594
-0.88487783
-1.8798731
-0.88208576
-1.8573372
-0.87759937
-1.8334745
-0.87129243
-1.8088624
-0.86369089
-1.7833046
-0.85593254
-0.84780757
0.74768083
0.012974991
0.74047196
0.043545978
0.73013282
0.061672002
0.71701668
0.077226216
0.70140236
0.091187534
0.68341746
0.10412378
0.66304247
0.11649006
0.64024387
0.12836452
0.61467117
0.1404877
0.58586713
0.1535601
0.5529369
0.17116497
0.51841804
0.18587829
0.49309315
0.17297187
0.50765202
0.031803089
0.57362225
-0.26425507
0.67483252
-0.62036335
0.81132065
-0.96537447
0.9958923
-1.298045
1.2129419
-1.5907313
1.4270974
-1.7884155
1.6131455
-1.862412
1.7637858
-1.8089045
1.8875146
-1.6404218
2.0010288
-1.3797341
2.1207716
-1.0557293
2.2587787
-0.69920191
2.4173166
-0.3412959
2.5852666
-0.022280712
2.745757
0.21534416
2.8838423
0.34190595
2.9855217
0.34340555
3.0314633
0.20725314
2.995421
-0.094072326
2.8621024
-0.51126196
2.6256181
-1.0183285
2.3018549
-1.6280702
1.9389408
-2.2831018
1.5967799
-2.7547961
1.3150203
-2.8481164
1.0959619
-2.5907646
0.91567142
-2.1392996
0.74076964
-1.6631427
0.56421362
-1.2466784
0.40042863
-0.8807301
0.2632933
-0.51842848
0.15314552
-0.066769637
0.10487069
0.31232025
0.073590988
0.58575044
0.030151477
0.80185146
-0.051114981
0.95096454
-0.17268746
1.0767223
-0.30839382
1.2000902
-0.42201411
1.2945076
-0.48476215
1.3049692
-0.49677164
1.1868561
-0.50526912
0.96388527
-0.57312723
0.75130036
-0.69290299
0.64326987
-0.80937038
0.59174633
-0.91174296
0.5274324
-1.0080347
0.45275492
-1.0988611
0.37806692
-1.1847662
0.30135174
-1.2669069
0.22293034
-1.3454155
0.14431395
-1.4182941
0.066187454
-1.4832922
-0.00919697
-1.5422309
-0.079110842
-1.5974612
-0.14530407
-1.6489722
-0.2099215
-1.6966762
-0.27244572
-1.7405483
-0.33251359
-1.7806049
-0.38980693
-1.8170169
-0.44392497
-1.8499892
-0.49472202
-1.8796787
-0.54224376
-1.9062119
-0.58645583
-1.9297264
-0.62734267
-1.9503414
-0.66487934
-1.9681927
-0.699104
-1.9833728
-0.73005139
-1.9959978
-0.75781714
-2.0061616
-0.78253032
-2.0139715
-0.80441006
-2.0194909
-0.82365514
-2.022781
-0.84047385
-2.0238512
-0.85501823
-2.0226989
-0.86743018
-2.0192697
-0.87778855
-2.0135178
-0.88615297
-2.0054041
-0.89253109
-1.9949613
-0.8969674
-1.9822351
-0.89956336
-1.967217
-0.90052658
-1.9498779
-0.89994206
-1.9304858
-0.8975434
-1.90966
-0.89314355
-1.8877049
-0.88691897
-1.8646491
-0.88020168
-0.87236536
0.74770417
0.014857448
0.74068306
0.05031015
0.73058172
0.071515802
0.71782666
0.089806443
0.7026396
0.1062945
0.68518139
0.12160001
0.66546408
0.13629538
0.64350067
0.15041531
0.61891318
0.16507008
0.59119975
0.18107722
0.55999258
0.20197999
0.52842426
0.21693395
0.51174293
0.18910462
0.53807343
0.0052398638
0.60835471
-0.33459477
0.71114274
-0.72315371
0.85859151
-1.1128558
1.0557248
-1.4952703
1.2728081
-1.8079566
1.4782528
-1.9940045
1.6541233
-2.0383608
1.797085
-1.9517799
1.915307
-1.7583529
2.02261
-1.4865549
2.1325937
-1.1651301
2.2556412
-0.82166521
2.3970158
-0.48213728
2.5513316
-0.17611838
2.704901
0.062192349
2.8409059
0.20623034
2.9445108
0.23989728
3.001305
0.15035976
2.9879032
-0.081069411
2.8902604
-0.41425572
2.7023836
-0.83111957
2.432586
-1.3587573
2.1117139
-1.9624708
1.7872029
-2.4303926
1.4967403
-2.5578366
1.2516044
-2.3460996
1.042299
-1.9309699
0.83958607
-1.4618969
0.62972516
-1.0384031
0.4249988
-0.67725815
0.23405608
-0.32922918
0.096832751
0.069976147
0.04223397
0.36751361
0.00016665394
0.62895549
-0.057895794
0.86132185
-0.15106983
1.045476
-0.27081589
1.1973788
-0.38884689
1.3184803
-0.47368188
1.3792565
-0.51075221
1.3418263
-0.5201462
1.1962459
-0.55264566
0.99681564
-0.63936218
0.83876728
-0.75112916
0.75577522
-0.85407093
0.69514423
-0.94821845
0.62170706
-1.0383766
0.54279247
-1.1240094
0.46343099
-1.2054359
0.38238507
-1.2832848
0.30030771
-1.3578352
0.21836812
-1.4291365
0.1371097
-1.4952438
0.056768602
-1.5541922
-0.02007067
-1.607933
-0.091353358
-1.6583061
-0.15930439
-1.7052341
-0.22527961
-1.7486524
-0.28890111
-1.7885632
-0.3497388
-1.8250623
-0.40729912
-1.8584296
-0.46125914
-1.8888107
-0.51178049
-1.9163222
-0.55888129
-1.9410735
-0.6025314
-1.9632065
-0.64270221
-1.9828344
-0.67942788
-2.0000647
-0.71278784
-2.0149755
-0.74287043
-2.0276589
-0.76983358
-2.0381803
-0.79388932
-2.0466072
-0.81528261
-2.0529675
-0.83422805
-2.0572717
-0.85092905
-2.0594745
-0.8655293
-2.0595177
-0.87813329
-2.05732
-0.88877954
-2.0528351
-0.89748749
-2.0460544
-0.90426476
-2.0370118
-0.90919659
-2.025679
-0.91243683
-2.0120253
-0.91405932
-1.9963086
-0.91379063
-1.9790184
-0.91130971
-1.9605614
-0.90681678
-1.9405842
-0.90116507
-0.89411481
0.74783886
0.017032583
0.74133321
0.05648809
0.73170945
0.080859189
0.71943366
0.10187467
0.70481632
0.12078335
0.688064
0.13830926
0.66923868
0.15513039
0.6483853
0.17125906
0.62508181
0.18824466
0.59892674
0.206928
0.57006302
0.23033
0.54199116
0.24430341
0.5339332
0.19663481
0.56761064
-0.028678985
0.63720737
-0.40425757
0.74086572
-0.8268284
0.89563424
-1.2676255
1.0920591
-1.6916958
1.2964365
-2.0123214
1.4848393
-2.1823398
1.6457833
-2.1991186
1.7785081
-2.0841428
1.890222
-1.8695
1.9918857
-1.5874827
2.0944582
-1.2668732
2.2065201
-0.9328795
2.3332396
-0.60803156
2.4732978
-0.31541171
2.6164044
-0.080274997
2.7475044
0.075612632
2.8522753
0.13545444
2.9192843
0.083373517
2.9273981
-0.089479319
2.8640141
-0.35137344
2.7235948
-0.69125922
2.5086229
-1.1442423
2.2344018
-1.6885184
1.9341847
-2.1303167
1.6421338
-2.2659505
1.3761395
-2.080574
1.1369551
-1.6927717
0.90452892
-1.2310849
0.66295802
-0.79876887
0.42054896
-0.43634866
0.1934416
-0.10206556
0.048999198
0.21547714
-0.039760407
0.45788203
-0.12320195
0.71409567
-0.21145894
0.95122665
-0.31286995
1.1482356
-0.41807293
1.303387
-0.50458388
1.4052094
-0.55412759
1.4286282
-0.56950106
1.3569747
-0.58148103
1.2082695
-0.62867609
1.044408
-0.71582229
0.92649991
-0.81323265
0.85367234
-0.90348621
0.78561524
-0.98885859
0.70703256
-1.0713847
0.62508058
-1.1502251
0.54189337
-1.2255116
0.45716867
-1.297728
0.3719046
-1.3671302
0.28709779
-1.4338392
0.20319524
-1.4977321
0.1201875
-1.556609
0.038548153
-1.609229
-0.038727755
-1.6576963
-0.11061542
-1.7032176
-0.17950498
-1.7459212
-0.2459843
-1.7857074
-0.30980975
-1.8223899
-0.37051622
-1.8561804
-0.42739619
-1.8872864
-0.4806154
-1.9157887
-0.53033927
-1.941752
-0.576535
-1.9653214
-0.61910128
-1.9866332
-0.65808098
-2.0057995
-0.69357972
-2.0229046
-0.72571997
-2.0380266
-0.75466418
-2.0512311
-0.78065765
-2.06256
-0.80396405
-2.0720347
-0.82483803
-2.0796376
-0.84349855
-2.0853134
-0.86012666
-2.0889654
-0.87482607
-2.090494
-0.88764807
-2.0898151
-0.89859348
-2.0869012
-0.90766193
-2.0817544
-0.91489109
-2.0743361
-0.92039979
-2.0645982
-0.92423357
-2.0527427
-0.92611168
-2.0392756
-0.92571434
-2.0243238
-0.92296652
-2.0076998
-0.91892143
-0.91282118
0.7479811
0.018818174
0.74174068
0.062595945
0.7326218
0.089852364
0.72101494
0.11338796
0.70721818
0.13455499
0.69144064
0.15412289
0.67380945
0.17282552
0.65434692
0.19074002
0.63266814
0.20980824
0.60856703
0.2307217
0.58257
0.25582453
0.55876908
0.26747433
0.55838193
0.19650139
0.59479645
-0.065301283
0.66063728
-0.47014117
0.76343265
-0.92956923
0.91551447
-1.4196097
1.0954098
-1.8714621
1.2755039
-2.192243
1.4404513
-2.3470574
1.583866
-2.3422079
1.7060741
-2.2058854
1.8122425
-1.9750418
1.9102976
-1.6847714
2.0085596
-1.3642811
2.1137647
-1.0372138
2.2301449
-0.72358036
2.357737
-0.44225986
2.4897868
-0.21171123
2.6147291
-0.0488653
2.7206717
0.029786809
2.7968554
0.007273604
2.8249192
-0.11769645
2.7939562
-0.32078303
2.697935
-0.59568748
2.5345007
-0.98115339
2.307375
-1.461553
2.0343819
-1.857343
1.7449604
-1.9765954
1.4628065
-1.7988257
1.1958043
-1.4270395
0.93288842
-0.9701677
0.66057267
-0.52830846
0.3854062
-0.16209463
0.14677851
0.13701149
-0.015396578
0.37981231
-0.15300297
0.59777455
-0.2740361
0.83704269
-0.38261409
1.0613043
-0.48223377
1.2489464
-0.56538007
1.3871572
-0.61902514
1.4590262
-0.63973867
1.449245
-0.64312443
1.3602895
-0.65994153
1.2252817
-0.71205903
1.0970267
-0.79081516
1.0058823
-0.87391953
0.93731906
-0.95295167
0.86497134
-1.0294425
0.78360368
-1.1035646
0.69909158
-1.1746371
0.6127101
-1.2428327
0.52498884
-1.3085594
0.43716539
-1.3720249
0.35004918
-1.4332596
0.26392752
-1.4922365
0.17874481
-1.5484905
0.094568726
-1.600009
0.012780329
-1.6468002
-0.0637254
-1.6907989
-0.13536939
-1.7324543
-0.20420441
-1.7719938
-0.27019139
-1.809183
-0.3332895
-1.8436925
-0.39287012
-1.8757264
-0.44858727
-1.9053722
-0.50069926
-1.9326672
-0.54925011
-1.9577022
-0.59406628
-1.9806313
-0.6351432
-2.0015929
-0.67258851
-2.0206959
-0.70657312
-2.0380372
-0.7372702
-2.0537021
-0.76495044
-2.0677434
-0.78991738
-2.0801689
-0.81247144
-2.0909537
-0.83286363
-2.1000217
-0.85129858
-2.1072624
-0.86790096
-2.112543
-0.88272576
-2.1157519
-0.89577998
-2.1168189
-0.90704099
-2.1157172
-0.91651025
-2.112377
-0.9242459
-2.106727
-0.93027288
-2.0989572
-0.93434171
-2.0894352
-0.93604627
-2.0783508
-0.93540008
-2.0651977
-0.93302692
-0.92812878
0.7481397
0.02076166
0.74238561
0.067968875
0.73388613
0.098138875
0.72300496
0.12412255
0.71011744
0.14735967
0.69546145
0.16875088
0.67920699
0.18906598
0.66131114
0.20855843
0.64157218
0.22932954
0.61982637
0.25206352
0.59707268
0.27799231
0.57803863
0.2857837
0.58347933
0.19055569
0.61900039
-0.10103827
0.67931753
-0.53049102
0.77638345
-1.0265886
0.91173345
-1.5548473
1.0607759
-2.0203378
1.2072401
-2.3384711
1.344389
-2.4838677
1.4693162
-2.4666558
1.5818573
-2.3177832
1.6843952
-2.076787
1.7815431
-1.7809999
1.8789014
-1.4606498
1.9814635
-1.138768
2.0925047
-0.83364788
2.2120281
-0.56090054
2.3358511
-0.33478858
2.4561163
-0.16854638
2.5641174
-0.077784585
2.6485777
-0.076956908
2.6945116
-0.16362463
2.6922119
-0.31864623
2.6360039
-0.53971034
2.5188637
-0.86420823
2.3337565
-1.2765241
2.0860003
-1.609596
1.8004017
-1.6910948
1.5050821
-1.5041375
1.2139174
-1.1372993
0.92205976
-0.68041848
0.62288281
-0.23096776
0.33777561
0.12273878
0.10150575
0.37496124
-0.090530922
0.57415018
-0.26310304
0.77238057
-0.40829206
0.98378206
-0.52631091
1.180514
-0.61828273
1.3417894
-0.68035386
1.4497313
-0.70957831
1.4884305
-0.71414242
1.4538357
-0.71543669
1.3617026
-0.73774604
1.2479455
-0.78947979
1.1493077
-0.8582705
1.0752471
-0.92943432
1.0089097
-0.99863422
0.93437308
-1.0662311
0.85118696
-1.1317752
0.76444652
-1.1948977
0.6755119
-1.2557797
0.58544838
-1.3147364
0.4956295
-1.3719412
0.40672668
-1.4273462
0.31880941
-1.4809079
0.23183283
-1.5327829
0.1460632
-1.5823003
0.062028871
-1.6279803
-0.018127911
-1.6705023
-0.092759778
-1.7112106
-0.16337809
-1.7503817
-0.23095232
-1.787977
-0.29568348
-1.8233987
-0.35748607
-1.8564823
-0.41555569
-1.8874031
-0.46985277
-1.9161598
-0.52056908
-1.9427479
-0.56755793
-1.9672717
-0.61067838
-1.9898819
-0.65002351
-2.0107178
-0.68574898
-2.0299135
-0.71806922
-2.0475936
-0.74724962
-2.0638647
-0.77365021
-2.0787632
-0.79762571
-2.0922796
-0.81948501
-2.1043468
-0.83945391
-2.1148517
-0.85769078
-2.123643
-0.87426953
-2.1305763
-0.88921564
-2.1355374
-0.90249971
-2.1384533
-0.91408308
-2.1392155
-0.92396298
-2.1377254
-0.93213579
-2.1341011
-0.93836807
-2.1287046
-0.94231325
-2.1214547
-0.94381029
-2.1119513
-0.94357953
-0.93985832
0.74820422
0.022205624
0.74274231
0.073412766
0.73478926
0.10602416
0.72476383
0.13411866
0.71294492
0.15919424
0.69958764
0.18215801
0.68487264
0.20382323
0.66874697
0.22464551
0.65121698
0.24666849
0.63206019
0.2708696
0.61292403
0.29658295
0.59875385
0.29930252
0.60777646
0.18108465
0.64027349
-0.13371478
0.69342612
-0.58366727
0.77692267
-1.109992
0.8818135
-1.6595644
0.98957663
-2.1278368
1.096033
-2.4445605
1.2020155
-2.5893665
1.3072109
-2.5712491
1.4102816
-2.4201381
1.5107199
-2.1763915
1.6097025
-1.8790581
1.709867
-1.5598361
1.8142192
-1.242144
1.924899
-0.94340436
2.0418806
-0.67706526
2.1625912
-0.45483053
2.2821939
-0.28764207
2.3936937
-0.18893228
2.4864252
-0.16948452
2.5482118
-0.22537711
2.5699057
-0.34047228
2.5460383
-0.51607327
2.4669988
-0.78536527
2.3161606
-1.1257852
2.0878962
-1.3813616
1.8046349
-1.4080248
1.4982113
-1.198473
1.1872075
-0.82795817
0.8709089
-0.36612607
0.56284701
0.075905701
0.28812725
0.39784916
0.050419411
0.61423605
-0.16258207
0.78922897
-0.35103153
0.9625645
-0.50608242
1.1400443
-0.62475431
1.2999811
-0.70730024
1.424834
-0.75406501
1.4967428
-0.77044991
1.5048817
-0.77118181
1.454617
-0.77746768
1.3681982
-0.80542676
1.2763576
-0.85532731
1.1998323
-0.91576932
1.1363262
-0.97732507
1.0709806
-1.0375049
0.99486148
-1.0965798
0.91036164
-1.1540303
0.82182819
-1.2095741
0.7308686
-1.2634521
0.63907021
-1.3159254
0.54782673
-1.3671045
0.45763362
-1.4169496
0.36838148
-1.4655368
0.28013027
-1.5131469
0.19338454
-1.5599212
0.10860198
-1.6044931
0.026388182
-1.6462447
-0.05099714
-1.6862484
-0.12334492
-1.7248264
-0.19235577
-1.7622794
-0.25825179
-1.7984679
-0.32135553
-1.8327237
-0.38139129
-1.8649353
-0.43774957
-1.8951867
-0.49043719
-1.923371
-0.53948978
-1.9494992
-0.58466334
-1.9736572
-0.6259537
-1.9960013
-0.66347094
-2.0166738
-0.69742599
-2.0358466
-0.72809551
-2.0536866
-0.75583101
-2.0703345
-0.78104688
-2.0858366
-0.80411791
-2.1001757
-0.82533492
-2.1132573
-0.8448881
-2.1249452
-0.86290278
-2.1350809
-0.87942773
-2.1435185
-0.89446548
-2.1501366
-0.90793418
-2.1547887
-0.9197701
-2.1573305
-0.92993203
-2.1578578
-0.93825375
-2.1565636
-0.94437472
-2.1533373
-0.94829057
-2.1475072
-0.950331
-0.94780931
0.74837959
0.023968518
0.74360051
0.078048675
0.73637976
0.11312599
0.72719441
0.14322479
0.71641691
0.16992693
0.70435922
0.19420039
0.69118087
0.21696299
0.67689179
0.23880226
0.66161478
0.26167535
0.64504443
0.28699272
0.62959484
0.31146489
0.61987901
0.30832755
0.63059594
0.16992483
0.65891219
-0.16221894
0.70259084
-0.62737012
0.76425674
-1.1715748
0.82979592
-1.7249241
0.89048672
-2.1882708
0.95225177
-2.5059705
1.0228086
-2.6594654
1.1050149
-2.6528542
1.1969491
-2.5113186
1.295353
-2.2739137
1.3979669
-1.9806723
1.5040654
-1.6648493
1.6142422
-1.3512093
1.7293125
-1.0573908
1.8491654
-0.79591454
1.972223
-0.57700451
2.0952676
-0.40994043
2.2122638
-0.30531741
2.3139491
-0.27070127
2.3898161
-0.30093033
2.4315919
-0.38205918
2.4335036
-0.51786613
2.3830975
-0.73484729
2.2553346
-0.99789226
2.0381343
-1.1640719
1.7545489
-1.1246645
1.4393078
-0.88404751
1.1133047
-0.50337668
0.78855611
-0.043031384
0.49248319
0.37143774
0.22965436
0.66152428
-0.0087286907
0.85432181
-0.22564692
1.0079019
-0.41512068
1.1533526
-0.56758499
1.2933532
-0.68029799
1.4132482
-0.75411245
1.4990301
-0.79270403
1.5355895
-0.8062539
1.5186362
-0.81164656
1.4602781
-0.82646121
1.3834584
-0.85959759
1.3101208
-0.90742482
1.2483735
-0.9610427
1.1906
-1.0147106
1.1251313
-1.0672507
1.0476708
-1.1188411
0.96201952
-1.1690379
0.87193885
-1.2178505
0.77949219
-1.2656111
0.68659146
-1.3124699
0.59443317
-1.3584549
0.5033676
-1.4035837
0.41324782
-1.4481062
0.32436171
-1.4922538
0.23721772
-1.5361539
0.15220718
-1.5794543
0.069438605
-1.6208259
-0.0097511766
-1.6601884
-0.083967304
-1.6983903
-0.15410674
-1.7355287
-0.2211007
-1.7718303
-0.28509119
-1.8070194
-0.34628105
-1.8405162
-0.40436243
-1.87215
-0.45893618
-1.9018739
-0.50991879
-1.9295825
-0.55711008
-1.9552589
-0.60043055
-1.9789968
-0.6398643
-2.0009442
-0.6755906
-2.0212624
-0.7078618
-2.0401587
-0.7370218
-2.0578487
-0.76346538
-2.0745052
-0.78763302
-2.0902042
-0.80987051
-2.1049364
-0.83045199
-2.1186009
-0.84956192
-2.13106
-0.86732356
-2.1421611
-0.88376388
-2.151769
-0.8987949
-2.1597114
-0.91227927
-2.1658352
-0.92415402
-2.1701688
-0.93429164
-2.172871
-0.94249444
-2.1735575
-0.94874363
-2.1715259
-0.95334547
-0.95188619
0.74857842
0.025224136
0.74415946
0.082521597
0.73767144
0.1196402
0.72948461
0.1514368
0.71992726
0.17953734
0.70930283
0.20488325
0.69776233
0.22852332
0.68539611
0.25108609
0.67231317
0.27452508
0.65844149
0.30051846
0.64663571
0.32271906
0.64081565
0.31355382
0.65174849
0.15861473
0.67456327
-0.18520724
0.70577561
-0.65860726
0.74054825
-1.2062538
0.76461399
-1.7488019
0.77691004
-2.200263
0.7907548
-2.5193995
0.82056055
-2.6887047
0.8737892
-2.7053797
0.94950965
-2.5862166
1.0428714
-2.3663202
1.1484766
-2.0851993
1.2622178
-1.7774427
1.3815458
-1.469368
1.5053999
-1.1801125
1.6332737
-0.92273964
1.7637482
-0.70656661
1.8941267
-0.53956297
2.0193529
-0.42992758
2.1312303
-0.38208649
2.2200835
-0.38941631
2.2785543
-0.44030577
2.299692
-0.53888967
2.2664247
-0.70153732
2.1476139
-0.87908457
1.9324594
-0.94906639
1.6471267
-0.83976819
1.3284066
-0.56623008
0.99807423
-0.17433844
0.68592699
0.26814806
0.40923543
0.64810096
0.15846261
0.91308565
-0.070426818
1.0845153
-0.27872113
1.2175264
-0.45845051
1.334037
-0.60118895
1.4366348
-0.70507384
1.5174079
-0.77169989
1.565795
-0.80737081
1.5713405
-0.8243731
1.5357432
-0.83849702
1.4746345
-0.86239295
1.4077823
-0.89968462
1.3480191
-0.94555703
1.294931
-0.9935991
1.239285
-1.0407044
1.1727447
-1.0868371
1.0941291
-1.1321233
1.0074641
-1.1763642
0.91620874
-1.219821
0.82290672
-1.2627736
0.72948405
-1.3052042
0.63682193
-1.3470969
0.54522473
-1.3886107
0.4546996
-1.4300013
0.36563057
-1.4714233
0.27845743
-1.5129718
0.19353444
-1.5546027
0.1108945
-1.5952497
0.030824772
-1.6342706
-0.044958681
-1.6722366
-0.11613135
-1.7092575
-0.18406428
-1.7454006
-0.24896178
-1.7807823
-0.31094356
-1.8151284
-0.37009581
-1.8479612
-0.42620836
-1.8790564
-0.47895022
-1.9082393
-0.52806498
-1.9354253
-0.57338724
-1.9605703
-0.61485447
-1.9837518
-0.652531
-2.0051162
-0.68660726
-2.0248742
-0.7173749
-2.0432716
-0.74520763
-2.060556
-0.77053959
-2.0769202
-0.79376206
-2.0924547
-0.81522005
-2.1071536
-0.83519592
-2.1209324
-0.85389807
-2.1336844
-0.87141588
-2.1452856
-0.88765946
-2.1555807
-0.90243831
-2.1644198
-0.91564604
-2.1718668
-0.92724593
-2.1779668
-0.93714452
-2.1822985
-0.9455906
-2.1839122
-0.9526317
-0.95217584
0.74876712
0.026640302
0.74492549
0.086109693
0.73922496
0.12525395
0.73198842
0.15862872
0.72362131
0.18789045
0.71441224
0.21408023
0.70451908
0.23835413
0.69406135
0.26136779
0.68316725
0.28511961
0.672045
0.31117866
0.66369239
0.33056788
0.66098959
0.31559943