/*--------------------------------*- C++ -*----------------------------------*\
| =========                 |                                                 |
| \\      /  F ield         | OpenFOAM: The Open Source CFD Toolbox           |
|  \\    /   O peration     | Version:  2406                                  |
|   \\  /    A nd           | Website:  www.openfoam.com                      |
|    \\/     M anipulation  |                                                 |
\*---------------------------------------------------------------------------*/
FoamFile
{
    version     2.0;
    format      ascii;
    arch        "LSB;label=32;scalar=64";
    class       volVectorField;
    location    "200";
    object      U;
}
// * * * * * * * * * * * * * * * * * * * * * * * * * * * * * * * * * * * * * //

dimensions      [0 1 -1 0 0 0 0];

internalField   nonuniform List<vector> 
16045
(
(29.966521 0.017990257 0)
(29.706166 0.066139533 0)
(29.114937 0.085098645 0)
(28.255728 0.077631602 0)
(27.246558 0.043316981 0)
(26.23684 -0.018367411 0)
(25.309445 -0.1102409 4.9101476e-21)
(24.439909 -0.2383183 0)
(23.514931 -0.42099583 0)
(22.378012 -0.68776574 0)
(20.880266 -1.0789475 0)
(18.885656 -1.620399 0)
(16.327527 -2.2713387 -6.2043692e-21)
(13.395049 -2.9422978 0)
(11.07414 -3.9578355 0)
(11.215185 -6.3066899 0)
(14.352962 -10.264146 0)
(19.143565 -14.668973 1.4420191e-21)
(24.438138 -18.239697 1.1956795e-21)
(30.249892 -21.528142 0)
(36.810291 -26.254178 0)
(43.570303 -30.582295 0)
(50.005965 -29.669322 0)
(57.942286 -20.193615 0)
(70.432286 -1.2184724 -1.173113e-22)
(81.772821 15.462687 0)
(89.999971 26.262233 7.2761099e-23)
(95.459708 31.875411 5.2287493e-24)
(98.669488 33.254396 1.12858e-23)
(100.07593 30.934751 -2.8095914e-24)
(99.954522 24.218219 4.8527379e-24)
(97.490685 8.742041 -9.6585662e-25)
(89.948497 -21.805676 -1.6819334e-23)
(76.543 -61.63742 2.737789e-22)
(58.395624 -102.68396 -1.3516133e-23)
(39.023768 -136.83012 2.5610384e-24)
(22.700534 -155.85855 1.1351205e-23)
(11.568866 -155.38161 0)
(4.9991664 -139.00236 6.739837e-25)
(1.7625146 -116.31329 -8.4163589e-24)
(0.41753235 -94.63 0)
(0.52795438 -75.33837 0)
(2.189504 -57.92977 -1.7712906e-23)
(4.972804 -41.485246 0)
(8.0200895 -25.349579 -7.9409943e-23)
(8.6973479 -9.9781921 0)
(6.2375511 3.2163456 0)
(1.2252422 8.7427794 0)
(-3.6011399 10.259368 0)
(-8.2603475 11.738745 0)
(-12.652464 13.974585 0)
(-17.144915 17.00211 0)
(-21.902413 20.849977 0)
(-26.720555 25.462217 0)
(-31.028907 30.201996 0)
(-33.846518 33.100491 0)
(-33.536843 30.188475 0)
(-27.87354 16.791218 1.2242095e-21)
(-20.587008 -2.1059197 0)
(-25.743535 -4.1808601 0)
(-30.783113 -2.6094572 0)
(-33.029949 -4.2760489 0)
(-35.552997 -5.9144755 0)
(-38.277705 -7.6460821 0)
(-41.196602 -9.5130411 0)
(-44.209106 -11.27493 0)
(-47.100592 -12.896035 -2.6355433e-22)
(-49.783726 -14.398101 0)
(-52.23146 -15.793206 0)
(-54.431516 -17.087274 0)
(-56.38525 -18.297673 0)
(-58.110153 -19.432831 0)
(-59.626997 -20.497302 0)
(-60.952577 -21.487817 0)
(-62.096668 -22.402054 0)
(-63.06662 -23.237112 0)
(-63.870581 -23.99355 0)
(-64.516041 -24.66928 0)
(-65.009954 -25.265046 0)
(-65.359026 -25.779919 0)
(-65.568653 -26.21676 0)
(-65.645124 -26.576429 0)
(-65.595632 -26.862363 0)
(-65.430137 -27.075701 0)
(-65.163544 -27.219952 0)
(-64.816301 -27.296 0)
(-64.410018 -27.306878 0)
(-63.958251 -27.253288 0)
(-63.457096 -27.138651 0)
(-62.887002 -26.965296 0)
(-62.234073 -26.739484 0)
(-61.522574 -26.466667 0)
(-60.816047 -26.155335 0)
(-60.167814 -25.812107 0)
(-59.510547 -25.445739 0)
(-58.619595 -25.067611 0)
(-57.409537 -24.705215 0)
(-56.052744 -24.381184 0)
(-55.284991 -24.10844 0)
(-54.210525 -23.897451 0)
(29.961439 0.059807634 0)
(29.687366 0.21534077 0)
(29.070155 0.3112772 4.3845437e-21)
(28.178748 0.36251158 0)
(27.134119 0.38032691 0)
(26.084765 0.37253917 0)
(25.113163 0.34491537 -4.8654121e-21)
(24.187285 0.29175716 0)
(23.185046 0.19179377 -5.3687058e-21)
(21.944917 0.018456293 0)
(20.315594 -0.23086113 0)
(18.225009 -0.51498918 0)
(15.741524 -0.74556367 6.6087526e-21)
(13.425398 -1.1642833 0)
(12.564926 -3.0346616 0)
(14.503181 -7.5050837 0)
(18.817734 -13.685415 4.2824212e-21)
(24.053707 -19.722966 -1.167217e-21)
(29.523292 -24.676147 -1.9587718e-21)
(35.727585 -29.286766 1.5942563e-21)
(43.028456 -34.171362 0)
(50.215819 -37.110861 0)
(56.18298 -34.943825 -1.7129731e-21)
(62.090052 -26.205768 -7.5678426e-22)
(70.117503 -11.544843 6.812315e-22)
(79.888234 5.1067682 0)
(88.606383 18.412893 4.0513107e-22)
(95.215732 27.026145 0)
(99.655767 31.160774 0)
(102.34909 30.901316 0)
(103.76636 25.133819 -7.4000642e-23)
(103.42099 10.592003 7.8049283e-23)
(99.422753 -14.855441 0)
(90.429085 -46.660157 -1.8165086e-22)
(76.022308 -80.939979 -6.7547545e-23)
(58.290151 -113.91281 0)
(41.240729 -137.68261 -1.7177595e-23)
(28.498203 -144.16911 9.7158011e-24)
(20.192019 -133.6536 9.8648803e-24)
(14.650031 -114.33645 1.1229842e-23)
(10.90902 -94.469352 0)
(8.2353015 -76.809161 0)
(7.4925085 -60.930675 6.4663638e-24)
(8.4940039 -45.592901 0)
(10.729857 -29.62924 6.2928917e-23)
(12.3417 -12.917506 0)
(9.7620045 2.1027791 -1.7845027e-22)
(4.4144836 9.9973245 0)
(-1.3575618 12.652232 0)
(-6.634876 14.501563 2.6805454e-22)
(-11.272916 17.064426 -2.3647857e-22)
(-15.816603 20.537522 0)
(-20.621454 24.839728 0)
(-25.401145 29.570525 0)
(-29.216562 33.412195 8.4561575e-24)
(-30.651175 33.530747 -2.0927275e-23)
(-27.934742 26.066094 0)
(-21.370801 11.115153 8.3294247e-23)
(-20.184365 1.7788251 0)
(-27.692664 3.6159433 0)
(-32.306321 3.158302 0)
(-35.211348 1.371775 -2.6437346e-22)
(-38.250469 -0.51999719 0)
(-41.109214 -2.7480304 0)
(-44.00756 -5.0455284 0)
(-46.931296 -7.2359113 0)
(-49.748326 -9.2718939 2.6199249e-22)
(-52.40977 -11.142618 0)
(-54.875286 -12.873702 0)
(-57.1257 -14.480077 0)
(-59.160668 -15.981789 -3.1099953e-22)
(-60.987828 -17.389178 0)
(-62.617171 -18.707185 0)
(-64.058425 -19.936571 0)
(-65.320455 -21.07715 0)
(-66.411461 -22.127869 0)
(-67.338618 -23.088951 0)
(-68.107817 -23.959706 0)
(-68.725868 -24.740441 0)
(-69.197474 -25.430481 0)
(-69.527533 -26.031786 0)
(-69.721186 -26.54671 0)
(-69.784656 -26.97893 0)
(-69.726813 -27.331399 0)
(-69.560631 -27.608026 0)
(-69.303205 -27.811322 0)
(-68.972401 -27.943793 0)
(-68.577982 -28.005906 0)
(-68.114053 -27.998479 0)
(-67.560227 -27.922319 0)
(-66.900855 -27.78171 0)
(-66.153539 -27.582643 0)
(-65.371261 -27.333468 0)
(-64.59513 -27.039986 0)
(-63.752829 -26.704234 0)
(-62.630116 -26.327313 0)
(-61.136279 -25.933558 0)
(-59.414493 -25.574354 0)
(-58.115033 -25.303758 0)
(-56.441564 -25.130356 0)
(29.957528 0.10356128 0)
(29.677918 0.38019168 0)
(29.057396 0.58938393 -4.31903e-21)
(28.168024 0.75372569 0)
(27.131789 0.89503951 0)
(26.098839 1.0291822 0)
(25.147095 1.168949 -2.367459e-21)
(24.237723 1.3119062 2.4531718e-21)
(23.241702 1.442243 5.12665e-21)
(22.008587 1.5512185 0)
(20.402614 1.6520097 0)
(18.409845 1.7920061 0)
(16.144372 1.7853823 -6.7035292e-21)
(14.168545 0.78045674 0)
(14.182225 -2.8038867 0)
(17.0831 -9.3446125 -1.5694987e-21)
(21.792712 -16.945884 -3.6631225e-21)
(27.06265 -23.730509 0)
(32.852749 -29.363768 1.6545913e-21)
(39.758382 -34.704686 -1.3548417e-21)
(47.576641 -39.56584 5.3778921e-22)
(55.046394 -41.727593 -8.9482385e-22)
(61.373707 -39.148127 -3.5774718e-22)
(67.134803 -31.2359 -6.5517896e-22)
(73.714903 -18.907502 0)
(81.841313 -4.2517487 -9.8835649e-22)
(90.181056 9.3208149 0)
(97.246188 19.395902 -6.836582e-22)
(102.63271 25.197853 0)
(106.50881 26.289133 -7.4560676e-22)
(109.03605 21.702795 -1.5456624e-22)
(109.61449 9.3552427 0)
(106.58885 -12.038913 -7.6636838e-23)
(98.598214 -39.112011 7.4162873e-23)
(85.652434 -69.196189 0)
(69.202692 -99.533125 -2.5584632e-22)
(52.381938 -123.98238 -4.027e-23)
(39.080137 -134.04272 4.2982834e-23)
(30.41631 -127.59011 0)
(24.66414 -110.81931 2.6392451e-23)
(20.480569 -91.800961 8.4535881e-24)
(16.558402 -75.040576 -6.8547245e-24)
(14.02106 -60.392865 8.8768611e-24)
(13.102062 -46.500645 4.6785403e-23)
(13.812073 -32.033694 1.8488248e-23)
(15.118563 -15.878302 0)
(14.31139 -0.36506089 3.8220046e-23)
(10.63499 9.4405856 1.1812945e-22)
(4.821847 14.032237 1.180411e-22)
(-1.3143957 16.549612 -3.8599591e-22)
(-6.7769152 19.483692 2.3780883e-22)
(-12.100225 23.407143 0)
(-17.525886 28.085604 0)
(-22.50402 32.7879 0)
(-25.660871 35.450841 0)
(-25.398235 32.879457 -5.4927307e-24)
(-21.027632 22.896705 -1.1861459e-23)
(-16.464053 10.155132 1.5773935e-22)
(-20.626405 5.6858236 0)
(-28.11718 6.0985911 0)
(-32.340068 4.8064462 0)
(-35.690855 2.8357772 2.5235392e-22)
(-39.044993 0.9273433 -2.8382701e-22)
(-42.164842 -1.1517834 0)
(-45.173917 -3.3128368 -2.9584717e-22)
(-48.123088 -5.4635191 0)
(-50.919198 -7.5382565 0)
(-53.553554 -9.4985825 0)
(-56.013743 -11.339164 0)
(-58.279231 -13.070145 0)
(-60.341999 -14.70139 3.1316663e-22)
(-62.20715 -16.23689 0)
(-63.881787 -17.675827 -3.3061038e-22)
(-65.375297 -19.019324 0)
(-66.695672 -20.268274 0)
(-67.850374 -21.423425 0)
(-68.845913 -22.48426 0)
(-69.688932 -23.450463 0)
(-70.385663 -24.321762 0)
(-70.940704 -25.098797 0)
(-71.358677 -25.782406 0)
(-71.644324 -26.376066 0)
(-71.803562 -26.883158 0)
(-71.845322 -27.308339 0)
(-71.782025 -27.655444 0)
(-71.629568 -27.929043 0)
(-71.403431 -28.131717 0)
(-71.111423 -28.265487 0)
(-70.746222 -28.329934 0)
(-70.288298 -28.325275 0)
(-69.723935 -28.253157 0)
(-69.071501 -28.120297 0)
(-68.37951 -27.936349 0)
(-67.682215 -27.711125 0)
(-66.901936 -27.445104 0)
(-65.837409 -27.128411 0)
(-64.419864 -26.767421 0)
(-62.802536 -26.401219 0)
(-61.578922 -26.097837 0)
(-59.92276 -25.891239 0)
(29.958751 0.15334384 0)
(29.683773 0.5556409 0)
(29.067535 0.87413754 0)
(28.18503 1.1372222 0)
(27.16342 1.374247 0)
(26.151132 1.6043652 0)
(25.215158 1.8371618 0)
(24.305171 2.0666024 0)
(23.285662 2.2741687 0)
(22.007114 2.44932 0)
(20.360741 2.625229 0)
(18.35701 2.8105412 0)
(16.250188 2.7374649 9.9697796e-21)
(14.764376 1.0672984 2.554967e-21)
(15.881032 -4.077959 0)
(19.63687 -12.275197 8.1151088e-21)
(24.548117 -20.912766 -2.1243005e-21)
(29.94103 -28.46711 4.3289552e-21)
(36.43844 -35.139167 -2.1313413e-21)
(44.353697 -41.248539 0)
(52.630095 -45.72644 -1.8377921e-21)
(60.030493 -46.904651 7.865885e-22)
(66.27405 -43.71901 1.391323e-21)
(71.886171 -36.160043 -1.2998142e-24)
(77.821816 -25.221477 0)
(84.796764 -12.326354 1.2369104e-21)
(92.590547 0.65664119 -1.0537232e-21)
(99.859831 11.262886 6.9268306e-22)
(105.95932 18.054453 0)
(110.72973 20.299428 -2.1901299e-23)
(114.0243 17.285204 3.0931233e-22)
(115.21121 7.6992296 1.7202154e-22)
(112.91129 -9.4517305 4.9319702e-22)
(106.16705 -31.788304 0)
(94.923245 -57.442497 0)
(79.879867 -84.873967 2.623777e-22)
(63.714619 -109.48508 0)
(49.960994 -122.59663 -3.0813522e-23)
(40.363171 -120.02137 3.4052304e-23)
(33.940425 -106.05783 -3.0356924e-23)
(29.103335 -88.109484 3.3322742e-23)
(24.263448 -71.84671 -7.0413133e-23)
(20.176561 -57.929852 9.9217955e-23)
(17.552118 -45.10451 8.6504813e-23)
(16.73601 -32.156243 1.434135e-22)
(17.432231 -17.708038 1.9097803e-22)
(17.25829 -2.6445173 2.4210526e-22)
(15.044581 8.2500732 -1.0894878e-22)
(10.383199 14.768235 1.2196421e-22)
(4.3176977 18.653132 0)
(-1.8122992 22.195516 0)
(-8.117227 26.492586 1.5850249e-22)
(-14.435264 31.460751 0)
(-19.633644 35.818225 0)
(-22.017668 36.942034 0)
(-20.383777 32.072271 0)
(-15.984661 21.474918 0)
(-15.03688 12.2061 -1.1381504e-22)
(-21.626845 10.017004 -4.2768964e-22)
(-28.431628 9.5541204 2.8501708e-22)
(-32.768571 8.0107917 -2.3257958e-22)
(-36.558566 6.1865945 -2.632247e-22)
(-40.115886 4.1447471 2.6220738e-22)
(-43.409986 1.8371799 0)
(-46.552326 -0.51257015 -2.9248119e-23)
(-49.510961 -2.7990748 -3.3407062e-22)
(-52.288573 -5.0190546 0)
(-54.897785 -7.1536935 0)
(-57.339318 -9.1851632 0)
(-59.601806 -11.105265 0)
(-61.67826 -12.918904 0)
(-63.567413 -14.62986 0)
(-65.275415 -16.238333 3.3047491e-22)
(-66.811202 -17.743197 -3.4319798e-22)
(-68.182701 -19.146288 0)
(-69.395928 -20.448135 0)
(-70.457019 -21.64944 0)
(-71.371747 -22.749448 0)
(-72.14588 -23.748741 0)
(-72.783536 -24.647811 0)
(-73.289277 -25.448037 0)
(-73.667256 -26.152276 0)
(-73.923127 -26.765168 0)
(-74.065343 -27.291578 0)
(-74.106014 -27.73653 0)
(-74.059788 -28.104539 0)
(-73.940119 -28.399444 0)
(-73.752246 -28.623317 0)
(-73.486845 -28.776478 0)
(-73.124297 -28.858004 0)
(-72.65233 -28.868383 0)
(-72.091043 -28.811931 0)
(-71.486936 -28.698681 0)
(-70.867544 -28.540403 0)
(-70.147539 -28.340515 0)
(-69.129127 -28.086285 0)
(-67.760479 -27.774333 0)
(-66.209323 -27.435285 0)
(-65.020379 -27.139644 0)
(-63.351175 -26.935439 0)
(29.957915 0.20683052 0)
(29.684242 0.73611563 0)
(29.074435 1.1675951 0)
(28.208404 1.5338187 0)
(27.213432 1.8705656 0)
(26.233577 2.1993469 4.3838663e-21)
(25.325423 2.5308822 0)
(24.428931 2.8565334 0)
(23.407367 3.1663579 0)
(22.116305 3.4560469 -4.9335894e-21)
(20.482381 3.8135761 5.1861638e-21)
(18.54272 4.1749626 -1.1524818e-20)
(16.647873 4.1556843 -6.3564579e-21)
(15.815262 1.6017712 0)
(17.866311 -5.3826337 -3.2094921e-21)
(22.033978 -15.18254 -3.5723396e-21)
(26.935087 -24.812423 1.8713814e-21)
(32.702194 -33.44939 -6.8348566e-21)
(40.172618 -41.456081 -2.4178721e-21)
(48.838254 -48.100231 -1.4461651e-21)
(57.220931 -51.929849 1.1985455e-21)
(64.408542 -52.006659 -1.4128994e-21)
(70.370101 -48.0465 0)
(75.663252 -40.451974 1.1704825e-21)
(81.066052 -30.187304 -1.1259299e-21)
(87.205833 -18.395204 2.1266387e-21)
(94.318236 -6.3063662 8.6543514e-22)
(101.60638 4.2480821 0)
(108.16391 11.545168 0)
(113.54923 14.666946 -5.4320671e-23)
(117.37541 13.055042 8.6043931e-22)
(119.01314 5.8759254 -3.5888554e-22)
(117.42996 -7.6470061 -1.189157e-21)
(111.83756 -25.904611 -4.8466481e-22)
(102.06969 -47.534877 3.0553461e-22)
(88.625614 -71.895774 -1.8506359e-23)
(73.59958 -95.634143 -1.3108103e-22)
(60.030033 -110.59166 -2.0129454e-22)
(49.714565 -111.14626 0)
(42.438004 -99.934875 1.0775686e-22)
(36.825526 -83.266354 1.2381322e-22)
(31.184319 -67.296053 2.336049e-22)
(25.65336 -53.783963 -9.9590696e-23)
(21.264244 -41.732719 8.8110699e-23)
(18.909968 -30.04304 -7.1443058e-22)
(18.707012 -17.370875 1.9960568e-22)
(18.575658 -3.5703616 -1.4378495e-22)
(16.846873 7.6837438 2.5026219e-22)
(13.028468 15.680454 -1.2293839e-22)
(7.6856185 20.914137 0)
(1.3721909 25.312706 -2.5917175e-23)
(-5.6706559 30.203313 -1.4892749e-22)
(-12.556043 35.317696 5.6135262e-23)
(-17.572705 38.880607 1.2759764e-22)
(-19.055127 38.263616 0)
(-16.79461 31.854578 0)
(-13.988684 22.193799 -2.7403829e-22)
(-16.41404 15.922567 0)
(-23.446348 14.299001 2.9190896e-22)
(-29.376155 12.981538 -1.7509467e-22)
(-33.717705 11.006871 2.0870813e-22)
(-37.610273 8.906572 2.382607e-22)
(-41.132322 6.6249155 -2.9516695e-22)
(-44.41183 4.1749487 -3.2451917e-22)
(-47.598953 1.7026808 3.2199897e-22)
(-50.601466 -0.68421799 -3.2240449e-23)
(-53.369712 -2.9803399 0)
(-55.953339 -5.2041498 -3.7313392e-22)
(-58.365901 -7.3506874 0)
(-60.608378 -9.4028696 0)
(-62.676886 -11.35245 0)
(-64.570559 -13.199726 0)
(-66.293301 -14.942553 0)
(-67.853161 -16.577964 3.4380557e-22)
(-69.258988 -18.105209 -3.5445321e-22)
(-70.51645 -19.525808 0)
(-71.631258 -20.840327 0)
(-72.6086 -22.04885 0)
(-73.454031 -23.151601 0)
(-74.171294 -24.150068 0)
(-74.764297 -25.045623 0)
(-75.236557 -25.841376 0)
(-75.593388 -26.541872 0)
(-75.84276 -27.153162 0)
(-75.996303 -27.680865 0)
(-76.06795 -28.130383 0)
(-76.069524 -28.505897 0)
(-76.004177 -28.810343 0)
(-75.860677 -29.044462 0)
(-75.618691 -29.207534 0)
(-75.267157 -29.298897 0)
(-74.827983 -29.321607 0)
(-74.347949 -29.284224 0)
(-73.849956 -29.198851 0)
(-73.241105 -29.069306 0)
(-72.324759 -28.880449 0)
(-71.065219 -28.621343 0)
(-69.654398 -28.311734 0)
(-68.604964 -28.020321 0)
(-67.044264 -27.808993 0)
(29.960126 0.2622265 0)
(29.694662 0.91586924 0)
(29.09832 1.4592363 0)
(28.254522 1.9273997 0)
(27.293311 2.3609144 0)
(26.354159 2.7843988 -4.267171e-21)
(25.483494 3.2099038 4.3648547e-21)
(24.612549 3.6268801 -4.4650186e-21)
(23.602792 4.0322941 0)
(22.321682 4.4336718 4.6978407e-21)
(20.712379 4.9409646 -9.8089067e-21)
(18.85896 5.383195 2.19194e-20)
(17.215228 5.1856906 0)
(17.109973 1.4163746 1.024258e-20)
(19.825195 -7.3964765 2.8337509e-21)
(24.074715 -18.496343 -1.0713483e-21)
(28.993072 -29.157696 0)
(35.39992 -39.27609 -2.4753302e-24)
(43.675231 -48.574116 2.5914552e-21)
(52.560086 -55.303127 -4.2640973e-22)
(60.693686 -58.29376 2.8818274e-21)
(67.5092 -57.219978 1.9335989e-21)
(73.086201 -52.368328 -3.0962129e-21)
(77.976104 -44.445182 0)
(82.871942 -34.388484 3.0967628e-21)
(88.34209 -23.181887 -1.7716675e-21)
(94.695326 -11.810614 -2.1035345e-21)
(101.71033 -1.562293 -4.2977688e-22)
(108.44147 5.9648989 1.6339754e-23)
(114.17427 9.7518179 -1.1704436e-22)
(118.34193 9.3048824 -1.0802921e-21)
(120.34502 4.0822182 -3.8106323e-22)
(119.47562 -6.4861932 1.4481784e-21)
(115.11542 -21.154948 6.8120526e-22)
(107.04535 -39.04615 0)
(95.327863 -60.360483 -1.419161e-22)
(81.752299 -82.813693 1.4109153e-22)
(68.917139 -98.607147 4.3527027e-22)
(58.287844 -101.40828 0)
(50.132129 -92.49876 -5.2324501e-23)
(43.586965 -77.216576 -4.9812018e-22)
(37.10962 -61.526777 8.5976968e-23)
(30.269343 -48.122667 0)
(24.115979 -36.589834 8.4474826e-23)
(20.213842 -25.873196 -2.0983949e-22)
(18.790629 -14.718563 -5.5777137e-22)
(18.295861 -2.9622599 1.5784434e-22)
(16.25902 8.0410733 -2.8095374e-22)
(12.596641 17.000372 0)
(7.5865109 23.450986 4.448379e-22)
(1.1523565 28.998771 2.2547184e-23)
(-6.0862238 34.511097 -2.866226e-22)
(-12.697215 39.341066 -5.0808628e-23)
(-16.82707 41.589686 -1.1996388e-22)
(-17.385478 39.241664 0)
(-15.463495 32.239654 3.1128263e-22)
(-15.059821 24.353881 5.9864481e-22)
(-19.429803 20.005284 0)
(-25.764241 18.187817 3.840841e-22)
(-30.839011 16.227134 0)
(-34.990322 13.965244 0)
(-38.77343 11.696609 -2.8016512e-22)
(-42.211504 9.3088956 2.7203965e-22)
(-45.427343 6.7962577 -3.8129324e-23)
(-48.512395 4.2293427 -3.6852455e-22)
(-51.468335 1.6800715 3.6247793e-22)
(-54.237258 -0.78184389 -4.1651792e-22)
(-56.777449 -3.1359441 3.8008214e-22)
(-59.146435 -5.4049032 -4.0724875e-22)
(-61.354257 -7.590418 0)
(-63.399935 -9.6792984 -3.9727322e-22)
(-65.282311 -11.666177 0)
(-67.003688 -13.547969 0)
(-68.5711 -15.31778 0)
(-69.995058 -16.972397 3.5514614e-22)
(-71.283309 -18.513186 -3.6374144e-22)
(-72.440667 -19.942218 0)
(-73.471663 -21.26062 0)
(-74.381286 -22.468612 0)
(-75.173277 -23.567832 0)
(-75.850491 -24.560541 0)
(-76.415702 -25.449702 0)
(-76.873359 -26.239981 0)
(-77.230897 -26.937627 0)
(-77.499391 -27.549315 0)
(-77.692078 -28.081065 0)
(-77.819627 -28.537969 0)
(-77.883303 -28.923417 0)
(-77.870233 -29.23882 0)
(-77.758915 -29.483468 0)
(-77.539122 -29.656312 0)
(-77.234442 -29.758967 0)
(-76.892774 -29.799112 0)
(-76.533445 -29.788667 0)
(-76.055371 -29.731908 0)
(-75.25895 -29.612907 0)
(-74.121116 -29.415713 0)
(-72.856748 -29.152281 0)
(-71.956047 -28.887641 0)
(-70.521273 -28.690602 0)
(29.957779 0.3131363 0)
(29.694006 1.0880295 0)
(29.112729 1.7427069 0)
(28.299143 2.3126136 4.1261538e-21)
(27.381106 2.8421965 0)
(26.492082 3.3577327 4.1938858e-21)
(25.668573 3.873011 -4.2345716e-21)
(24.83295 4.3736449 4.3110822e-21)
(23.848937 4.8691681 0)
(22.597261 5.3757519 0)
(21.034174 6.0113944 4.6651492e-21)
(19.325872 6.5151297 -1.846298e-20)
(18.0197 5.9958715 8.3160857e-21)
(18.591083 0.80060622 -5.4982368e-21)
(21.646886 -9.651162 -5.1630042e-21)
(25.766866 -21.856541 -9.7652515e-22)
(30.818538 -33.846568 0)
(37.833002 -45.725805 2.3413804e-21)
(46.397977 -55.938215 0)
(54.970856 -62.396319 1.1117068e-21)
(62.565395 -64.424408 -1.6308218e-21)
(68.847328 -62.217505 1.892126e-21)
(73.966171 -56.474709 -6.9177843e-22)
(78.43886 -48.099295 1.1610583e-21)
(82.894893 -38.022264 -5.1452328e-21)
(87.842652 -27.12734 1.7826589e-21)
(93.541915 -16.265324 2.6391006e-21)
(99.994956 -6.4244122 -4.9952507e-22)
(106.58384 1.152996 4.6991373e-22)
(112.41067 5.4628116 3.4294253e-21)
(116.79106 5.9956254 0)
(119.14489 2.3339615 0)
(119.02079 -5.8863459 8.3639097e-22)
(115.88562 -17.648631 -3.5378556e-22)
(109.43008 -32.283901 7.1738084e-22)
(99.69568 -50.611804 0)
(88.004921 -71.333965 0)
(76.270882 -87.136755 -5.0035167e-22)
(65.692333 -91.261211 9.2182866e-23)
(56.810745 -84.020242 -1.0446321e-22)
(49.222415 -70.075139 6.4445951e-22)
(41.803739 -54.67223 -2.603557e-22)
(33.761686 -41.126891 0)
(26.031961 -29.841644 -3.2244053e-22)
(20.634249 -19.802663 8.2550446e-22)
(17.673229 -9.7936273 0)
(16.169512 -0.046401107 1.7692577e-21)
(13.088955 10.139674 0)
(8.8063351 19.423908 0)
(3.4942338 26.937617 -3.795646e-22)
(-2.8711378 33.361519 5.9768229e-22)
(-9.4780248 38.967734 2.0126223e-22)
(-14.845036 42.851941 1.1008947e-22)
(-17.548312 43.430468 5.5698895e-22)
(-17.465647 39.736411 6.9216756e-22)
(-16.584919 33.064902 -2.9806418e-22)
(-18.190366 27.042741 -3.1303801e-22)
(-22.981059 23.738892 4.0779191e-22)
(-28.271607 21.617719 9.2022622e-23)
(-32.638079 19.28889 0)
(-36.484547 16.85028 0)
(-40.049247 14.409895 2.5866002e-22)
(-43.330243 11.870631 0)
(-46.402034 9.2312519 -4.1947173e-23)
(-49.322369 6.5518787 1.1211733e-21)
(-52.112314 3.8870912 -4.1742416e-22)
(-54.790055 1.2784731 4.0822419e-22)
(-57.294694 -1.2182742 0)
(-59.596416 -3.5971254 -3.2985263e-23)
(-61.748299 -5.8885022 -4.369541e-22)
(-63.753362 -8.0901651 4.0106262e-22)
(-65.610224 -10.194893 0)
(-67.319997 -12.196152 0)
(-68.88626 -14.082816 0)
(-70.31854 -15.849498 0)
(-71.627559 -17.496301 3.6458616e-22)
(-72.819599 -19.025118 -3.7098134e-22)
(-73.897241 -20.438959 0)
(-74.864904 -21.738893 0)
(-75.727089 -22.92639 0)
(-76.485974 -24.004412 0)
(-77.143462 -24.976244 0)
(-77.702834 -25.84658 0)
(-78.1707 -26.62192 0)
(-78.557476 -27.30942 0)
(-78.875688 -27.916017 0)
(-79.135032 -28.447664 0)
(-79.335226 -28.908662 0)
(-79.461459 -29.300881 0)
(-79.491046 -29.623761 0)
(-79.413919 -29.875585 0)
(-79.255656 -30.056812 0)
(-79.065774 -30.173751 0)
(-78.861166 -30.237559 0)
(-78.532913 -30.252894 0)
(-77.876664 -30.204085 0)
(-76.879078 -30.071686 0)
(-75.780889 -29.860316 0)
(-75.059464 -29.630105 0)
(-73.788906 -29.453141 0)
(29.961684 0.36479831 0)
(29.712618 1.2616525 0)
(29.156476 2.0260911 2.0310572e-21)
(28.378339 2.6935212 -6.0826488e-21)
(27.508133 3.3123439 0)
(26.674033 3.9105848 -4.0859745e-21)
(25.902386 4.504432 -4.1502595e-21)
(25.108715 5.076606 0)
(24.160014 5.6566512 0)
(22.95045 6.256557 0)
(21.460377 6.998228 2.2417019e-21)
(19.94376 7.5278372 -2.6234282e-21)
(19.003434 6.4600171 -1.012887e-20)
(20.101701 -0.21215087 -6.7032534e-21)
(23.21914 -12.007459 -5.9438545e-21)
(27.144135 -25.299835 9.0038082e-22)
(32.37963 -38.961903 0)
(39.616794 -52.473975 0)
(47.850569 -63.102949 0)
(55.673112 -69.050985 -2.0818088e-21)
(62.48993 -70.093956 -6.2419908e-22)
(68.131346 -66.837528 -4.2048541e-21)
(72.78305 -60.279003 1.7277384e-21)
(76.905765 -51.439618 -3.0365748e-21)
(81.033599 -41.242508 2.8894151e-21)
(85.59838 -30.517438 -2.2750145e-21)
(90.798176 -20.028444 -4.9061112e-21)
(96.645072 -10.58007 0)
(102.82769 -3.0921081 1.0388333e-21)
(108.53177 1.5855952 -2.8884367e-21)
(113.00287 2.9200775 -4.5465159e-22)
(115.71259 0.48612999 9.1257515e-22)
(116.36864 -5.8443668 -3.3788246e-21)
(114.44651 -15.17512 -4.0315671e-22)
(109.65449 -27.136674 -7.3730418e-22)
(101.96523 -42.797729 3.7088315e-22)
(92.304779 -61.433942 0)
(81.931722 -76.488687 1.4057458e-22)
(71.653578 -81.061929 1.4118976e-22)
(62.222045 -74.831964 0)
(53.661587 -61.892534 6.1021429e-22)
(45.160997 -46.742762 9.8189216e-22)
(35.926605 -32.954284 9.8931416e-22)
(26.855502 -21.708478 0)
(19.989012 -12.132962 0)
(15.536347 -3.4093266 -2.0354602e-21)
(11.881239 4.9998518 -1.5217807e-21)
(7.1396122 14.531001 0)
(2.0079513 23.685919 0)
(-3.4671794 31.452092 9.7977509e-22)
(-9.2419561 37.906284 -5.2470428e-22)
(-14.503416 42.828405 7.5008199e-22)
(-18.104857 45.269397 7.3919366e-22)
(-19.416033 44.266059 2.7869659e-22)
(-19.163214 39.920443 -6.6077845e-22)
(-19.42469 34.195925 -9.9137084e-23)
(-22.043628 29.701483 0)
(-26.425994 26.942656 -3.7713061e-22)
(-30.790054 24.629304 -4.0706138e-22)
(-34.586453 22.110021 0)
(-38.081765 19.540718 5.9999694e-22)
(-41.35702 16.945979 6.5312687e-22)
(-44.404079 14.277987 7.0791562e-22)
(-47.2683 11.548676 3.3708051e-22)
(-49.985592 8.7973022 8.8870475e-23)
(-52.579754 6.0577991 1.2712222e-21)
(-55.072527 3.34889 4.6547716e-22)
(-57.475741 0.70915871 0)
(-59.70981 -1.8081383 4.5135768e-22)
(-61.778898 -4.2081724 4.392421e-22)
(-63.717108 -6.5124656 0)
(-65.530915 -8.7205958 0)
(-67.22275 -10.828847 0)
(-68.787523 -12.826255 0)
(-70.227407 -14.696313 0)
(-71.553216 -16.442457 0)
(-72.775292 -18.064766 3.7119287e-22)
(-73.895661 -19.566617 0)
(-74.916395 -20.95077 0)
(-75.842257 -22.219338 0)
(-76.676819 -23.375376 0)
(-77.421497 -24.422926 0)
(-78.078712 -25.366955 0)
(-78.654188 -26.214272 0)
(-79.157833 -26.972481 0)
(-79.60156 -27.649066 0)
(-79.994197 -28.250946 0)
(-80.334118 -28.783242 0)
(-80.604642 -29.248518 0)
(-80.781269 -29.646407 0)
(-80.85357 -29.974834 0)
(-80.848749 -30.233161 0)
(-80.818322 -30.426149 0)
(-80.777542 -30.563791 0)
(-80.610149 -30.651133 0)
(-80.104558 -30.673903 0)
(-79.255044 -30.611128 0)
(-78.325032 -30.462087 0)
(-77.787182 -30.280713 0)
(-76.690272 -30.136338 0)
(29.961642 0.41790906 0)
(29.72097 1.4342772 0)
(29.188852 2.3051796 -4.0435425e-21)
(28.453128 3.0651897 0)
(27.63953 3.7670926 0)
(26.869198 4.4406848 -4.031774e-21)
(26.157043 5.1032073 4.0342337e-21)
(25.415801 5.7392406 8.1922109e-21)
(24.513374 6.3954668 0)
(23.360509 7.0762373 0)
(21.978895 7.9104828 0)
(20.680942 8.4158323 -6.791907e-23)
(20.107946 6.6191761 0)
(21.558149 -1.4036273 -6.2290731e-21)
(24.532713 -14.281517 8.7954984e-21)
(28.269089 -28.782647 5.8564739e-21)
(33.523098 -44.239369 6.2987601e-22)
(40.38728 -58.919837 0)
(47.677539 -69.596243 0)
(54.402637 -74.949302 1.9225343e-21)
(60.278267 -75.123794 6.0343982e-22)
(65.254261 -71.005167 7.199885e-21)
(69.502068 -63.775203 4.9102734e-21)
(73.394442 -54.535691 2.3744023e-21)
(77.344982 -44.20851 -1.2414147e-21)
(81.672784 -33.592543 -3.9321854e-21)
(86.524377 -23.396032 3.5951547e-21)
(91.891426 -14.297634 1.2634756e-21)
(97.544314 -6.9906122 0)
(102.94929 -2.1170562 0)
(107.42116 -0.18950404 1.1604153e-21)
(110.52761 -1.640613 5.8409681e-23)
(111.96085 -6.3845942 1.8165826e-21)
(111.23744 -13.67769 1.8398022e-21)
(108.05601 -23.361743 1.325884e-21)
(102.35275 -36.693332 4.1106051e-22)
(94.745059 -53.158845 0)
(85.828712 -66.788296 0)
(75.962955 -71.008196 0)
(66.091468 -65.151406 0)
(56.707922 -52.808801 2.4931652e-22)
(47.091427 -37.863463 -1.0696876e-21)
(36.650097 -23.798582 -1.0963849e-21)
(26.423638 -12.488024 2.8813336e-21)
(18.203729 -3.446756 0)
(12.364551 3.8599183 6.0476312e-21)
(6.3297969 11.551826 0)
(0.16189195 20.366077 -3.274914e-21)
(-5.5744641 28.884537 2.7409439e-21)
(-10.912721 36.172014 -3.2015686e-21)
(-15.741315 41.911201 0)
(-19.440525 45.607518 -6.9562016e-22)
(-21.427392 46.534257 -7.0203043e-22)
(-21.825703 44.414002 -7.4821841e-22)
(-21.781093 40.098117 9.8368006e-22)
(-22.877474 35.514629 1.0203842e-21)
(-25.756215 32.119168 0)
(-29.535837 29.669848 0)
(-33.183778 27.264808 0)
(-36.508952 24.652171 -1.2413362e-21)
(-39.633474 21.980406 1.0290718e-22)
(-42.576421 19.263822 -6.1451476e-22)
(-45.337941 16.488148 9.7175604e-23)
(-47.952361 13.675194 8.1965048e-22)
(-50.443903 10.853646 -7.7928949e-22)
(-52.828403 8.0458126 9.0055086e-23)
(-55.121726 5.2649596 2.9067729e-22)
(-57.338246 2.5298541 7.4018246e-22)
(-59.468808 -0.11340735 0)
(-61.450152 -2.6231011 0)
(-63.313757 -5.0162575 0)
(-65.074522 -7.3058875 0)
(-66.734545 -9.4925779 0)
(-68.300304 -11.577976 0)
(-69.756353 -13.539453 0)
(-71.104128 -15.372276 0)
(-72.355915 -17.079046 0)
(-73.517745 -18.660365 0)
(-74.589392 -20.118662 0)
(-75.572782 -21.458073 0)
(-76.473415 -22.68164 0)
(-77.294811 -23.79446 0)
(-78.039187 -24.80239 0)
(-78.711916 -25.712708 0)
(-79.322848 -26.533526 0)
(-79.883844 -27.272884 0)
(-80.403205 -27.938209 0)
(-80.878292 -28.535493 0)
(-81.290917 -29.067853 0)
(-81.614754 -29.535441 0)
(-81.838458 -29.936225 0)
(-81.990331 -30.26888 0)
(-82.123757 -30.536472 0)
(-82.252887 -30.747165 0)
(-82.25458 -30.905899 0)
(-81.909458 -31.000405 0)
(-81.215817 -31.009687 0)
(-80.459197 -30.929162 0)
(-80.112243 -30.806203 0)
(-79.198313 -30.701473 0)
(29.965599 0.46915954 0)
(29.740214 1.5949792 -4.0723847e-21)
(29.236549 2.5648486 3.9899244e-21)
(28.544911 3.4124026 0)
(27.790517 4.1931069 -1.9878483e-21)
(27.086177 4.9368629 5.9261416e-21)
(26.436893 5.659349 7.9504894e-21)
(25.754145 6.3543861 -7.9411155e-21)
(24.904106 7.0705154 0)
(23.827851 7.8261705 2.0249852e-21)
(22.582778 8.7269832 2.5375111e-24)
(21.50534 9.1415357 7.4137089e-21)
(21.274644 6.5233508 -1.527452e-20)
(22.902607 -2.6308906 1.0057912e-20)
(25.619815 -16.426582 1.0445015e-20)
(29.147187 -32.235405 -1.5573985e-20)
(34.035138 -49.241669 1.1473513e-23)
(39.911087 -64.540758 -3.4553908e-21)
(45.755905 -75.066766 6.3611798e-21)
(51.116373 -79.929684 -6.3657747e-21)
(55.954392 -79.488607 -3.693886e-21)
(60.281576 -74.775074 -9.625816e-21)
(64.217887 -67.056628 -3.566013e-21)
(68.014865 -57.506915 -1.25083e-21)
(71.935241 -47.083608 0)
(76.16995 -36.572914 5.123633e-21)
(80.825154 -26.63628 -5.4941229e-21)
(85.880834 -17.846488 -1.3032964e-21)
(91.11709 -10.740468 6.6831342e-21)
(96.200396 -5.7720655 -5.1071472e-21)
(100.69169 -3.4083112 -7.0299409e-21)
(104.23853 -4.0257329 -1.0454738e-21)
(106.41356 -7.4578304 5.1541238e-23)
(106.80059 -13.109065 1.9797268e-22)
(105.07785 -20.909246 2.0030986e-21)
(101.2384 -32.113459 0)
(95.517465 -46.338275 4.0166106e-22)
(87.907292 -58.03967 -4.0647466e-22)
(78.451944 -61.203833 1.5890676e-21)
(68.194499 -55.164961 0)
(58.108229 -43.044905 -1.3888964e-21)
(47.502111 -28.140661 -3.5723617e-21)
(35.881817 -13.818145 0)
(24.631859 -2.6101369 6.5726869e-22)
(15.688708 5.4201755 0)
(8.6222277 11.77127 -3.6052904e-21)
(1.0222759 18.828531 -3.9582088e-21)
(-6.0010874 26.705718 6.389435e-21)
(-12.022723 34.204811 -5.5163671e-21)
(-17.009877 40.498335 1.995107e-21)