/*--------------------------------*- C++ -*----------------------------------*\
| =========                 |                                                 |
| \\      /  F ield         | OpenFOAM: The Open Source CFD Toolbox           |
|  \\    /   O peration     | Version:  2406                                  |
|   \\  /    A nd           | Website:  www.openfoam.com                      |
|    \\/     M anipulation  |                                                 |
\*---------------------------------------------------------------------------*/
FoamFile
{
    version     2.0;
    format      ascii;
    arch        "LSB;label=32;scalar=64";
    class       volScalarField;
    location    "400";
    object      k;
}
// * * * * * * * * * * * * * * * * * * * * * * * * * * * * * * * * * * * * * //

dimensions      [0 2 -2 0 0 0 0];

internalField   nonuniform List<scalar> 
16045
(
0.054774747
0.047088856
0.041211795
0.036589144
0.03285832
0.029793421
0.027229051
0.025056359
0.023192723
0.021575397
0.020164391
0.018914743
0.017812455
0.01681823
0.015935425
0.015125767
0.01440408
0.013732281
0.013131901
0.012565997
0.012058852
0.011576287
0.011141976
0.010726475
0.010349738
0.0099893519
0.0096585308
0.0093442192
0.0090504708
0.0087749162
0.0085118918
0.008268575
0.0080321754
0.0078149245
0.0076027676
0.0074059166
0.00721643
0.0070354048
0.0068668574
0.0066986814
0.0065486471
0.0063918955
0.0062574083
0.006111607
0.0059897374
0.0058546617
0.0057429356
0.0056183272
0.0055146539
0.0054004131
0.0053027511
0.0051990948
0.0051054614
0.0050125292
0.0049216601
0.0048386565
0.0047508174
0.0046754251
0.004592488
0.0045213165
0.0044457142
0.0043757243
0.0043089059
0.0042387438
0.0041803043
0.0041105264
0.0040585697
0.0039907354
0.0039431182
0.0038784278
0.003833964
0.0037725238
0.0037309974
0.0036724246
0.0036336812
0.0035778469
0.0035416502
0.0034884782
0.0034547707
0.0034040688
0.0033726204
0.0033240965
0.003294579
0.0032480259
0.0032204045
0.003175964
0.0031504197
0.0031083069
0.0030850903
0.0030457447
0.0030253698
0.0029890315
0.0029709544
0.0029357177
0.0029169009
0.0028784371
0.0028563621
0.0028088442
0.0027843098
0.0027309231
0.054774504
0.047089184
0.041211358
0.036589671
0.032857614
0.029794215
0.027228034
0.02505744
0.023191417
0.021576706
0.020162898
0.018916147
0.017810931
0.016819565
0.01593402
0.015126915
0.014402868
0.013733222
0.013130846
0.012566818
0.012057843
0.011577107
0.011140905
0.010727377
0.010348557
0.0099903432
0.0096572639
0.0093452509
0.0090491675
0.0087759542
0.0085105412
0.0082696895
0.0080306323
0.0078163263
0.0076007804
0.007407845
0.0072138341
0.0070378821
0.0068638188
0.00670134
0.0065456952
0.0063941173
0.0062551485
0.0061128981
0.0059884923
0.0058548802
0.0057427142
0.0056175035
0.005515493
0.0053983703
0.0053050069
0.0051953482
0.0051096454
0.0050066816
0.0049278973
0.0048309705
0.0047583974
0.0046670438
0.0045999518
0.0045138443
0.0044515364
0.0043703953
0.0043123
0.0042358162
0.0041815225
0.0041093262
0.0040585516
0.0039902455
0.003942779
0.0038780055
0.0038336448
0.0037721168
0.0037306556
0.0036721185
0.0036333589
0.0035776077
0.0035413875
0.0034882881
0.0034545216
0.0034039119
0.0033724098
0.003324007
0.0032944453
0.003248025
0.0032203342
0.0031760218
0.0031504039
0.0031083981
0.0030851189
0.0030457611
0.003025166
0.0029887267
0.0029706066
0.0029356419
0.0029171366
0.0028795353
0.0028579888
0.0028116555
0.0027877486
0.0027345686
0.054774694
0.047088953
0.041211467
0.03658956
0.032857571
0.029794285
0.027227798
0.02505772
0.023190974
0.021577206
0.020162252
0.018916845
0.017810116
0.016820413
0.015933088
0.015127853
0.014401863
0.013734223
0.013129769
0.012567902
0.01205665
0.011578324
0.011139559
0.010728731
0.010347106
0.0099917296
0.0096558658
0.0093464813
0.009048011
0.0087768788
0.0085096995
0.0082703385
0.0080299583
0.0078169543
0.0075999355
0.0074088314
0.0072124402
0.0070395467
0.0068616545
0.0067037567
0.0065428549
0.0063970048
0.0062520841
0.0061156778
0.0059858376
0.0058569537
0.0057409262
0.0056186221
0.0055145772
0.005398757
0.0053045881
0.005195429
0.0051093283
0.0050067294
0.0049275294
0.0048310251
0.0047580036
0.0046670587
0.0045995655
0.0045137923
0.0044511673
0.0043702588
0.0043119655
0.0042355824
0.0041812285
0.0041090196
0.00405826
0.0039899182
0.0039424293
0.0038776862
0.0038332108
0.0037717894
0.0037301489
0.0036717511
0.003632781
0.0035771614
0.003540704
0.0034877248
0.0034536798
0.0034032504
0.0033714993
0.0033233735
0.0032936493
0.0032474961
0.0032195875
0.0031753427
0.0031492886
0.0031071844
0.0030832609
0.0030437585
0.0030226908
0.0029863549
0.0029682167
0.0029339766
0.0029160319
0.0028798202
0.0028590234
0.0028145876
0.0027907903
0.0027383236
0.054774881
0.047088716
0.041211637
0.036589368
0.032857644
0.029794233
0.027227644
0.02505797
0.023190402
0.021577969
0.020161048
0.018918316
0.01780813
0.01682267
0.01593034
0.01513077
0.014398596
0.013737462
0.013126393
0.012571027
0.012053595
0.01158096
0.011137124
0.010730671
0.010345407
0.0099929389
0.0096548735
0.0093470386
0.0090476044
0.0087769372
0.0085096966
0.0082700913
0.008030174
0.0078165417
0.0076002982
0.0074082228
0.0072130757
0.0070385375
0.0068627875
0.0067021602
0.0065445578
0.0063949076
0.006254089
0.0061135089
0.005987603
0.0058552696
0.0057419634
0.0056177559
0.0055147755
0.0053986026
0.0053042439
0.005195582
0.0051088473
0.0050068572
0.0049271223
0.0048310411
0.0047576837
0.0046669867
0.0045993085
0.0045136404
0.0044509472
0.0043700533
0.004311728
0.004235373
0.0041809257
0.0041088295
0.0040578986
0.0039897333
0.0039420526
0.0038774913
0.0038328488
0.0037715968
0.0037298039
0.003671585
0.0036324704
0.0035770366
0.0035404672
0.0034876487
0.0034535267
0.0034032075
0.0033713766
0.003323356
0.0032935465
0.0032475416
0.0032195604
0.0031754809
0.0031493985
0.0031072793
0.0030833036
0.0030436659
0.0030224493
0.0029861397
0.0029679248
0.00293378
0.0029158338
0.0028797515
0.0028589775
0.002814481
0.0027910133
0.0027380129
0.054775144
0.047088377
0.041211956
0.03658898
0.03285799
0.02979383
0.027227972
0.025057603
0.023190656
0.021577694
0.020161173
0.018918192
0.017808072
0.016822749
0.01593006
0.015131087
0.014398079
0.013738016
0.013125666
0.012571766
0.012052735
0.011581777
0.011136264
0.010731419
0.010344701
0.0099934643
0.0096544598
0.0093472249
0.0090475735
0.0087767249
0.0085100812
0.0082694732
0.0080309586
0.0078155562
0.0076014165
0.0074069624
0.0072144031
0.0070371441
0.0068641617
0.0067007884
0.006545833
0.0063936767
0.0062551739
0.0061124686
0.0059884757
0.0058544005
0.0057426732
0.0056169918
0.0055153997
0.0053978775
0.0053048108
0.0051948852
0.0051093251
0.0050062236
0.0049274795
0.0048304917
0.0047579194
0.0046665118
0.0045994355
0.0045132258
0.0044509827
0.0043696954
0.0043116857
0.004235076
0.004180813
0.0041085782
0.0040577191
0.0039894996
0.0039418096
0.0038772501
0.0038325386
0.0037713233
0.0037294128
0.0036712418
0.0036319945
0.0035765913
0.0035399029
0.0034870873
0.0034528383
0.0034024713
0.0033704923
0.0033224002
0.0032924647
0.003246469
0.0032184769
0.0031744938
0.0031484593
0.0031064245
0.0030824529
0.0030427969
0.0030214978
0.0029850525
0.0029667217
0.0029325606
0.0029147968
0.0028791226
0.0028589719
0.0028158628
0.0027929623
0.0027404644
0.054775148
0.047088368
0.041211945
0.036589062
0.032857835
0.029794121
0.02722757
0.025058155
0.023190006
0.021578435
0.020160398
0.018918948
0.017807366
0.016823325
0.015929598
0.015131336
0.014397981
0.013737835
0.013126039
0.012571026
0.012053752
0.011580276
0.011138155
0.010728932
0.010347653
0.0099898926
0.0096584666
0.0093427066
0.0090523827
0.008771605
0.0085152989
0.0082641559
0.0080362073
0.0078103665
0.0076064226
0.0074021299
0.0072189466
0.0070328966
0.0068679768
0.006697424
0.0065486029
0.0063914884
0.0062566676
0.0061115571
0.0059887393
0.0058545523
0.0057420627
0.0056177664
0.0055143801
0.0053988378
0.0053037312
0.0051957699
0.0051083513
0.0050069517
0.0049266341
0.0048310973
0.0047571122
0.0046671152
0.0045985022
0.0045139809
0.0044497856
0.0043706765
0.0043102171
0.0042361896
0.0041792465
0.004109569
0.004056365
0.0039900831
0.0039409046
0.0038773419
0.0038320121
0.0037711467
0.003728956
0.0036711208
0.0036314025
0.0035766251
0.0035392008
0.0034871491
0.003452093
0.0034024975
0.003369791
0.0033224949
0.003291965
0.0032468124
0.0032182648
0.0031751442
0.0031484521
0.0031072257
0.0030822932
0.0030428033
0.0030195565
0.0029820015
0.0029610586
0.0029264164
0.0029087134
0.0028772265
0.0028606926
0.0028286141
0.002809856
0.0027638182
0.054775183
0.0470883
0.0412121
0.036588804
0.032858224
0.029793556
0.027228312
0.025057172
0.023191194
0.02157697
0.020162065
0.018917005
0.017809476
0.016820974
0.015932052
0.015128697
0.014400638
0.013735068
0.01312872
0.012568333
0.012056236
0.011577896
0.011140197
0.010727115
0.010349029
0.0099888314
0.0096590415
0.0093424695
0.0090521646
0.0087721158
0.0085144282
0.0082652234
0.0080349071
0.0078117558
0.0076049161
0.0074036522
0.0072173648
0.0070344978
0.0068662836
0.0066992428
0.0065465719
0.0063938148
0.0062539777
0.0061146791
0.00598517
0.0058585598
0.0057376862
0.0056223925
0.0055096272
0.0054034876
0.0052992678
0.0051997537
0.0051048101
0.0050097723
0.0049243292
0.0048326528
0.0047559291
0.0046676741
0.0045980846
0.0045139063
0.0044498548
0.0043701651
0.0043106796
0.0042353098
0.0041800026
0.0041084927
0.0040571312
0.0039891242
0.0039413427
0.0038767249
0.0038320119
0.0037708272
0.0037286733
0.0036709259
0.003631007
0.0035765029
0.0035387508
0.0034871293
0.0034515486
0.0034024285
0.0033690421
0.0033221697
0.0032909998
0.003246252
0.0032172076
0.0031743988
0.0031473115
0.0031063462
0.0030811829
0.0030421326
0.003018846
0.0029816475
0.0029603018
0.0029256618
0.0029072814
0.0028760591
0.0028596898
0.0028286897
0.002807524
0.0027654414
0.054775435
0.047087968
0.041212412
0.036588394
0.032858616
0.029793055
0.02722878
0.025056609
0.023191676
0.02157644
0.020162445
0.018916645
0.017809616
0.016820912
0.015931849
0.015129003
0.014400066
0.013735719
0.013127852
0.012569209
0.012055241
0.011578791
0.011139316
0.010727775
0.010348524
0.0099890144
0.0096591239
0.009342021
0.0090529255
0.0087710183
0.0085158088
0.0082636199
0.0080366754
0.0078099732
0.0076066481
0.0074021978
0.0072184922
0.0070339484
0.0068662877
0.0066999757
0.0065452852
0.0063957186
0.0062517847
0.0061170998
0.0059829142
0.0058605589
0.0057362744
0.005623196
0.0055095689
0.0054028769
0.0053004292
0.005198167
0.0051065082
0.0050080303
0.0049257497
0.0048314344
0.0047566356
0.0046671289
0.0045981918
0.0045137481
0.0044497194
0.0043700797
0.004310504
0.0042351962
0.0041797775
0.0041083863
0.0040568057
0.0039890515
0.0039409388
0.0038766573
0.003831608
0.0037707017
0.0037283325
0.0036707038
0.0036307207
0.00357621
0.0035384283
0.0034867947
0.0034511503
0.0034021368
0.003368648
0.0033220006
0.0032906502
0.0032461234
0.0032168495
0.0031743122
0.0031472076
0.0031066429
0.0030815893
0.0030423948
0.0030186381
0.0029806422
0.0029588947
0.0029243466
0.0029067201
0.0028755887
0.0028591032
0.0028252856
0.0028072253
0.0027579582
0.05477564
0.047087692
0.041212712
0.036588025
0.032858994
0.029792622
0.027229187
0.025056165
0.023192058
0.021576034
0.020162762
0.018916302
0.017809861
0.016820628
0.015932036
0.015128768
0.014400194
0.013735556
0.013127882
0.012569179
0.012055104
0.011578966
0.011138958
0.010728183
0.010347958
0.0099895996
0.009658454
0.0093426442
0.0090523186
0.0087715104
0.0085154205
0.0082638569
0.0080365936
0.0078099015
0.0076069028
0.0074017936
0.0072191115
0.0070331684
0.0068673232
0.0066987666
0.0065467584
0.0063940926
0.0062536172
0.0061151925
0.0059849163
0.0058585928
0.0057382063
0.005621384
0.0055112341
0.0054013713
0.0053017021
0.0051970747
0.0051073064
0.0050073973
0.0049260776
0.0048311635
0.0047566598
0.0046669873
0.0045981522
0.004513544
0.0044497251
0.0043697883
0.0043105128
0.0042348984
0.0041797109
0.0041081605
0.0040566249
0.0039889243
0.0039406521
0.0038765851
0.0038312748
0.0037705904
0.0037280282
0.0036704697
0.0036304606
0.0035758295
0.0035381771
0.0034863279
0.0034509017
0.0034016312
0.0033683931
0.0033214829
0.0032904643
0.0032457711
0.0032169202
0.0031742662
0.0031473612
0.0031063936
0.0030809358
0.0030413508
0.0030174409
0.0029799427
0.002959162
0.0029252961
0.0029083914
0.0028767721
0.0028598595
0.0028234636
0.0028048802
0.0027534974
0.054775638
0.047087691
0.0412127
0.036588027
0.032858974
0.029792618
0.027229164
0.025056156
0.02319202
0.021576039
0.020162687
0.018916343
0.017809732
0.016820714
0.015931862
0.015128873
0.014400022
0.013735621
0.013127781
0.012569137
0.01205514
0.011578768
0.011139166
0.010727824
0.010348327
0.0099891226
0.0096589274
0.0093421273
0.0090528193
0.0087710333
0.0085158879
0.0082634617
0.0080370172
0.0078095648
0.0076073378
0.0074014209
0.0072196781
0.0070326088
0.0068681763
0.0066978564
0.0065480252
0.0063927371
0.0062553191
0.0061134415
0.0059869124
0.0058566567
0.0057402083
0.0056195867
0.0055128991
0.0054000359
0.0053027715
0.0051963697
0.0051077269
0.0050072594
0.0049260019
0.0048313783
0.0047563127
0.0046673438
0.004597691
0.0045139128
0.004449223
0.0043701212
0.0043099848
0.0042351948
0.004179161
0.0041084045
0.0040560875
0.0039890723
0.0039401612
0.0038766147
0.0038308378
0.0037705144
0.0037276586
0.003670314
0.0036301948
0.0035756518
0.0035380449
0.0034861695
0.0034508453
0.003401456
0.0033682786
0.0033211498
0.0032900645
0.0032450735
0.0032161595
0.0031733347
0.0031465964
0.0031056907
0.0030805516
0.0030409685
0.0030172466
0.0029798226
0.0029595616
0.0029261284
0.0029093849
0.0028770649
0.0028583077
0.002820147
0.0027985854
0.002748552
0.054775692
0.047087616
0.041212791
0.036587898
0.032859121
0.029792419
0.027229371
0.025055888
0.023192277
0.021575724
0.02016296
0.018916029
0.017809964
0.016820461
0.015931993
0.015128738
0.014400008
0.013735635
0.01312761
0.012569295
0.012054837
0.011579034
0.011138789
0.010728131
0.010347959
0.0099893853
0.0096586628
0.0093422681
0.0090527212
0.0087710251
0.0085159527
0.0082633448
0.0080371838
0.0078094065
0.0076075506
0.0074012424
0.0072199578
0.0070323313
0.0068686429
0.0066973148
0.0065488479
0.0063917698
0.0062566031
0.006112018
0.0059885691
0.0058549759
0.0057419124
0.0056180463
0.0055142215
0.005399011
0.0053034513
0.0051959401
0.0051078581
0.0050071661
0.0049259225
0.0048312854
0.004756293
0.0046671038
0.004597779
0.0045135687
0.0044493504
0.0043697376
0.0043101157
0.0042347853
0.0041792945
0.0041079796
0.004056205
0.0039886314
0.0039402601
0.0038761465
0.0038309109
0.0037700285
0.0037276588
0.003669826
0.0036300634
0.0035751325
0.0035377763
0.003485612
0.0034505124
0.0034009059
0.0033679633
0.0033206589
0.0032898985
0.0032447888
0.0032162812
0.0031732846
0.0031467957
0.0031053592
0.0030801824
0.0030400209
0.0030165257
0.0029791112
0.0029594427
0.0029258177
0.002908673
0.0028752705
0.0028560275
0.0028158052
0.0027942325
0.0027431672
0.054775842
0.047087406
0.041213007
0.036587643
0.032859371
0.029792144
0.027229627
0.025055611
0.023192523
0.021575451
0.020163192
0.018915755
0.017810192
0.016820168
0.015932243
0.015128385
0.014400329
0.013735164
0.013128063
0.012568656
0.012055457
0.011578229
0.01113954
0.010727248
0.010348727
0.0099885733
0.0096593059
0.0093416659
0.0090531399
0.0087707049
0.0085161144
0.0082633265
0.0080370721
0.0078097266
0.0076071009
0.0074019941
0.007219058
0.0070336157
0.0068672266
0.0066991178
0.0065470233
0.0063938649
0.0062546895
0.0061140073
0.0059869692
0.0058564864
0.0057408905
0.0056189352
0.0055137711
0.0053993932
0.0053033712
0.0051960222
0.005107956
0.0050070791
0.0049261194
0.0048310762
0.0047565425
0.0046668456
0.0045979713
0.0045133815
0.0044493624
0.0043697067
0.0043099204
0.0042348833
0.0041789869
0.0041080955
0.0040559125
0.0039886927
0.0039400388
0.0038761459
0.0038307512
0.0037699892
0.0037275343
0.0036697851
0.0036299567
0.0035751403
0.0035376761
0.0034856435
0.0034504016
0.0034008962
0.0033678472
0.0033206122
0.0032897547
0.0032447011
0.0032160732
0.0031731078
0.0031465203
0.0031051471
0.0030799307
0.0030398044
0.0030164772
0.0029791426
0.0029598229
0.0029263744
0.0029093629
0.0028748959
0.0028556993
0.0028119279
0.0027911057
0.0027385272
0.054775773
0.047087486
0.041212946
0.036587688
0.032859348
0.02979212
0.027229674
0.025055489
0.023192656
0.021575231
0.020163396
0.018915463
0.017810431
0.016819839
0.015932489
0.015128038
0.014400574
0.013734798
0.013128318
0.012568266
0.012055722
0.011577831
0.011139796
0.010726883
0.010348935
0.0099882924
0.0096594249
0.009341511
0.0090531461
0.0087707045
0.0085159811
0.0082635315
0.0080367219
0.0078102534
0.0076063867
0.0074029997
0.0072178383
0.0070351794
0.0068654988
0.0067011232
0.0065449979
0.0063959945
0.0062527292
0.0061158678
0.0059854235
0.0058577901
0.0057399366
0.0056196158
0.0055133588
0.0053995866
0.005303296
0.0051959515
0.0051079944
0.0050069234
0.0049261369
0.0048308994
0.0047565226
0.004666616
0.0045979562
0.0045130651
0.0044493631
0.0043693331
0.0043098769
0.0042345377
0.0041788045
0.0041078439
0.0040555333
0.0039885236
0.0039394821
0.0038759758
0.0038301142
0.0037697011
0.0037269256
0.0036692929
0.0036293932
0.0035744035
0.0035370438
0.0034846797
0.0034495866
0.003399783
0.0033668716
0.0033194805
0.0032886979
0.0032435417
0.0032148066
0.0031716677
0.0031447557
0.0031032299
0.0030778047
0.0030378293
0.0030149223
0.0029781338
0.0029593516
0.0029261868
0.0029088036
0.00287427
0.00285431
0.0028104293
0.0027889264
0.0027378917
0.054775473
0.047087878
0.041212546
0.036588137
0.032858886
0.029792585
0.027229188
0.025055943
0.023192159
0.021575674
0.020162873
0.018915926
0.017809848
0.016820356
0.015931822
0.015128617
0.014399839
0.013735412
0.013127559
0.012568874
0.012054981
0.011578416
0.011139079
0.010727471
0.010348209
0.0099889394
0.0096586419
0.0093422702
0.0090522823
0.0087715772
0.0085150881
0.0082644217
0.0080359491
0.0078109814
0.0076059202
0.0074034071
0.0072177684
0.0070352575
0.0068657306
0.0067010375
0.0065453061
0.0063959661
0.0062529044
0.0061160344
0.0059853788
0.0058581584
0.0057397047
0.0056201043
0.0055130263
0.0054000974
0.005302938
0.0051964354
0.0051076275
0.0050074041
0.0049257278
0.0048314136
0.0047560642
0.0046671284
0.0045975124
0.0045134772
0.0044490174
0.0043695656
0.0043096637
0.0042345881
0.0041786704
0.0041077956
0.004055382
0.0039884633
0.0039392556
0.0038759247
0.0038298174
0.0037696413
0.003726587
0.0036692183
0.0036290805
0.0035743186
0.0035368656
0.0034845834
0.0034495629
0.0033997161
0.0033669362
0.0033194575
0.0032888149
0.0032435803
0.0032149811
0.0031717582
0.0031449682
0.003103282
0.0030779842
0.0030378606
0.0030150733
0.0029782009
0.0029595895
0.0029262781
0.002908863
0.0028739259
0.0028538165
0.0028095976
0.0027878417
0.0027377009
0.054775157
0.047088287
0.041212177
0.036588541
0.032858511
0.029792945
0.027228829
0.025056238
0.02319183
0.021575895
0.020162581
0.018916077
0.017809582
0.01682047
0.015931535
0.015128771
0.014399447
0.013735706
0.013126967
0.012569407
0.012054108
0.011579269
0.011137862
0.010728704
0.010346611
0.0099905758
0.0096566794
0.0093442638
0.0090500482
0.0087738088
0.0085127299
0.008266745
0.0080336051
0.0078132862
0.0076036674
0.0074056473
0.00721562
0.0070374305
0.0068636753
0.0067031393
0.0065433492
0.0063979596
0.0062510895
0.0061178405
0.005983796
0.0058596525
0.0057384871
0.0056211301
0.0055123025
0.0054005481
0.0053027265
0.0051963699
0.0051077609
0.0050070626
0.0049259131
0.0048310823
0.0047560565
0.0046669644
0.0045972513
0.0045134528
0.0044486084
0.0043695555
0.0043092432
0.0042344952
0.0041783142
0.0041075829
0.0040551083
0.0039881339
0.0039390558
0.0038755043
0.0038296379
0.003769169
0.0037263611
0.003668712
0.0036287775
0.0035737515
0.0035364983
0.0034839384
0.0034491526
0.0033989655
0.0033663914
0.0033185032
0.0032879521
0.0032422822
0.0032137313
0.0031701036
0.0031434104
0.0031014922
0.0030765171
0.0030365211
0.0030143082
0.0029777797
0.0029594783
0.0029258731
0.0029082631
0.0028719389
0.0028517016
0.0028051251
0.0027840091
0.0027337171
0.054775084
0.047088371
0.041212103
0.03658861
0.032858437
0.029792996
0.027228745
0.025056278
0.023191725
0.021575926
0.020162458
0.018916084
0.017809463
0.016820432
0.015931442
0.015128673
0.014399392
0.013735553
0.013126942
0.012569219
0.012054101
0.011579063
0.011137874
0.010728483
0.010346654
0.0099903437
0.0096567449
0.0093440667
0.0090500734
0.0087737483
0.0085126053
0.008266946
0.0080332279
0.0078138295
0.0076030057
0.0074065207
0.0072147299
0.0070385444
0.0068626484
0.0067044074
0.0065422164
0.0063993899
0.0062497656
0.0061195409
0.0059821415
0.0058617112
0.0057364727
0.0056234491
0.0055101396
0.0054027877
0.0053008242
0.0051980873
0.0051065135
0.005007952
0.0049254884
0.004831129
0.0047563297
0.0046664267
0.0045978922
0.0045126833
0.004449294
0.0043687746
0.0043098317
0.0042337392
0.0041787884
0.0041068542
0.0040554377
0.0039874684
0.0039391968
0.0038749083
0.0038296081
0.0037685962
0.0037262224
0.0036680862
0.003628542
0.0035730669
0.0035360783
0.0034832362
0.0034485064
0.0033982816
0.0033656865
0.0033179646
0.0032875134
0.003242102
0.0032136883
0.0031702079
0.0031435557
0.0031014454
0.0030762866
0.0030359924
0.0030134946
0.0029767189
0.00295821
0.0029241767
0.0029058934
0.002869146
0.0028467272
0.0028003285
0.0027785424
0.0027298191
0.054775248
0.047088151
0.041212331
0.036588324
0.032858705
0.02979268
0.027228994
0.025056001
0.023191864
0.021575787
0.020162382
0.018916179
0.017809088
0.016820816
0.015930752
0.015129319
0.014398457
0.013736344
0.013125921
0.012569972
0.01205319
0.011579599
0.011137224
0.010728722
0.010346279
0.0099903739
0.0096564943
0.0093441158
0.0090497147
0.0087740507
0.0085119843
0.0082675751
0.0080324044
0.0078146179
0.0076022539
0.007407133
0.0072144082
0.0070386374
0.0068630282
0.006703789
0.0065433622
0.0063980929
0.0062515172
0.0061177942
0.0059841733
0.0058598721
0.0057383609
0.0056219471
0.0055114361
0.0054020185
0.0053012271
0.0051981782
0.005106103
0.0050085788
0.0049247493
0.0048317023
0.0047557976
0.0046665438
0.0045977629
0.0045123621
0.0044493992
0.0043682724
0.0043099196
0.0042332467
0.0041787404
0.0041064021
0.0040552292
0.0039870517
0.003938822
0.0038745432
0.0038290983
0.0037682793
0.0037256367
0.0036677993
0.0036279845
0.0035727344
0.0035356755
0.0034828369
0.0034482888
0.0033978349
0.003365446
0.0033173652
0.0032869113
0.0032411363
0.0032126345
0.0031689149
0.0031422575
0.003100209
0.0030751951
0.0030351477
0.0030131378
0.0029767743
0.0029585892
0.0029243308
0.002905647
0.0028672332
0.0028439545
0.0027961592
0.0027757689
0.0027286444
0.05477506
0.047088385
0.041212109
0.036588576
0.032858455
0.029792933
0.02722873
0.025056236
0.023191599
0.021575989
0.020162113
0.018916358
0.017808789
0.016821004
0.015930381
0.01512956
0.014397974
0.013736667
0.013125318
0.012570367
0.01205252
0.011579991
0.011136604
0.010728982
0.010345872
0.0099903621
0.0096564375
0.0093437548
0.0090500597
0.0087733534
0.0085127077
0.0082666015
0.0080334609
0.0078134174
0.0076036276
0.0074057067
0.0072161036
0.0070369898
0.0068649947
0.0067019908
0.0065454685
0.0063962741
0.0062536043
0.0061160725
0.0059861384
0.0058582795
0.0057401969
0.0056204222
0.0055131999
0.0054004816
0.005302942
0.0051966605
0.0051076479
0.0050072842
0.004925883
0.0048308633
0.004756375
0.0046661834
0.0045978906
0.0045122982
0.0044492676
0.00436838
0.0043095871
0.004233521
0.0041782419
0.0041067656
0.0040547214
0.0039873433
0.0039384422
0.0038746708
0.0038288434
0.0037682512
0.0037254188
0.0036676872
0.0036276998
0.0035726277
0.003535302
0.0034827174
0.0034478891
0.0033976302
0.0033651563
0.00331712
0.0032868486
0.0032410157
0.0032127449
0.00316896
0.0031423221
0.0031000095
0.0030749693
0.0030348159
0.0030130277
0.0029766578
0.0029585588
0.0029233422
0.0029038412
0.0028636074
0.0028408086
0.0027904818
0.0027702011
0.0027461763
0.054775178
0.047088218
0.0412123
0.036588342
0.03285868
0.029792669
0.027228938
0.025055978
0.023191759
0.021575735
0.02016225
0.018916054
0.017808968
0.016820585
0.015930641
0.015129028
0.014398264
0.013736135
0.013125484
0.012570017
0.012052398
0.011579955
0.011136155
0.010729219
0.010345243
0.0099906629
0.0096559104
0.0093438438
0.0090498996
0.0087730626
0.0085130066
0.0082659551
0.0080341458
0.0078125364
0.0076045886
0.0074046919
0.0072172729
0.00703587
0.0068663509
0.0067007555
0.006546993
0.006394908
0.0062552856
0.0061145462
0.0059879816
0.0058565644
0.0057421844
0.005618548
0.0055152453
0.0053985626
0.0053049022
0.0051948553
0.0051093628
0.0050057626
0.0049271755
0.0048298023
0.0047570722
0.0046657013
0.0045979275
0.0045123435
0.004448781
0.0043687199
0.0043088527
0.004233896
0.0041774816
0.0041070368
0.0040540296
0.0039874596
0.0039378539
0.003874595
0.0038283826
0.0037679553
0.0037250987
0.0036671909
0.0036274369
0.0035720405
0.0035349293
0.0034820972
0.0034473176
0.0033968722
0.0033644113
0.0033161564
0.0032859814
0.0032398755
0.003211763
0.003167628
0.0031411252
0.0030985274
0.0030737154
0.0030335667
0.0030124883
0.00297635
0.0029580312
0.002921349
0.0029008815
0.0028565543
0.002835768
0.0027799854
0.0027858444
0.0027513241
0.05477554
0.047087736
0.04121274
0.036587809
0.032859142
0.029792123
0.027229381
0.025055423
0.023192185
0.021575137
0.020162706
0.018915353
0.017809507
0.016819739
0.015931282
0.015128048
0.014398965
0.013735106
0.013126134
0.012569091
0.012052831
0.011579323
0.011136199
0.010729042
0.010344815
0.009990957
0.0096551113
0.0093444271
0.0090490267
0.0087735887
0.0085124695
0.0082660447
0.0080342975
0.0078119399
0.0076055948
0.0074033414
0.0072191198
0.0070338411
0.0068688745
0.0066982631
0.0065498661
0.0063923323
0.0062580247
0.006112373
0.0059900926
0.0058551701
0.0057434133
0.0056179797
0.0055157108
0.0053985425
0.0053049607
0.0051950074
0.0051093497
0.0050058111
0.0049272807
0.004829597
0.0047573826
0.0046651696
0.0045984991
0.0045114511
0.0044496383
0.0043674678
0.0043099212
0.0042323734
0.0041785825
0.0041054287
0.0040549513
0.0039859775
0.0039384151
0.0038734119
0.0038284474
0.0037671336
0.003724634
0.0036665906
0.0036266348
0.0035713759
0.0035340544
0.0034812354
0.0034464675
0.0033959147
0.0033635868
0.0033152215
0.0032852607
0.003239036
0.00321104
0.0031665323
0.0031397773
0.0030967827
0.0030722497
0.0030325778
0.0030123121
0.0029762293
0.0029571143
0.0029186505
0.0028968378
0.0028487984
0.0028260054
0.0027770927
0.0027911191
0.0027975289
0.05477544
0.047087939
0.041212219
0.036588468
0.032858092
0.029793287
0.027227818
0.025056999
0.023190277
0.021576895
0.020160728
0.018916991
0.017807763
0.016820979
0.01593
0.015128731
0.01439822
0.013735243
0.013125836
0.012568842
0.012052778
0.011578917
0.011136172
0.010728681
0.010344667
0.0099907576
0.009654797
0.0093444116
0.0090485928
0.0087737145
0.008512001
0.0082662617
0.008033861
0.0078122306
0.0076052028
0.0074037237
0.0072187419
0.0070343439
0.0068684583
0.0066989156
0.0065493373
0.006393188
0.0062572688
0.0061135182
0.0059889983
0.005856648
0.0057419917
0.0056196733
0.0055141626
0.005400171
0.0053035649
0.0051962985
0.005108249
0.0050067042
0.0049263901
0.0048302621
0.0047565314
0.0046658037
0.0045976258
0.0045120824
0.0044488135
0.0043679912
0.004309237
0.0042326916
0.0041780894
0.0041055215
0.004054685
0.00398586
0.0039383949
0.0038730878
0.0038286321
0.0037665989
0.0037249562
0.0036658776
0.0036270184
0.0035705749
0.0035344154
0.0034804729
0.0034467428
0.0033953236
0.0033637508
0.0033148688
0.0032852996
0.00323875
0.0032109153
0.0031661267
0.0031395512
0.0030964985
0.0030725469
0.0030330769
0.0030132635
0.0029764377
0.0029566806
0.0029158948
0.0028918023
0.002841839
0.0028219423
0.002773181
0.0028780287
0.0028621409
0.054775451
0.04708795
0.041212053
0.036588662
0.032857701
0.029793684
0.027227196
0.025057582
0.023189451
0.021577619
0.020159752
0.018917786
0.017806722
0.016821731
0.015929035
0.015129269
0.014397522
0.013735363
0.013125593
0.012568399
0.012053069
0.011577924
0.011136901
0.010727326
0.01034561
0.0099892893
0.0096557745
0.0093429608
0.0090496012
0.008772249
0.0085131424
0.0082647605
0.0080350908
0.0078109253
0.0076061596
0.0074031266
0.0072188686
0.0070349542
0.0068673904
0.0067008395
0.0065471789
0.0063960417
0.0062545145
0.0061166898
0.0059862013
0.0058596433
0.0057394868
0.0056222609
0.0055120385
0.0054022921
0.0053018305
0.0051979343
0.0051069566
0.0050078489
0.004925575
0.0048309374
0.0047561197
0.0046660622
0.0045974795
0.0045120273
0.0044488095
0.0043677547
0.0043092668
0.0042323538
0.0041780503
0.0041050756
0.0040545139
0.0039852999
0.0039381145
0.0038724246
0.0038283612
0.003765856
0.0037247259
0.0036651763
0.003626677
0.0035700197
0.0035338829
0.0034799205
0.003446143
0.0033945784
0.0033631754
0.0033138744
0.0032845716
0.0032373689
0.0032096578
0.0031641619
0.0031379415
0.0030948047
0.0030718654
0.0030328682
0.003013344
0.0029753074
0.0029544958
0.0029111756
0.0028866087
0.0028350141
0.0028153126
0.0027908697
0.0029302854
0.0029291388
0.054775218
0.047088255
0.04121174
0.036588978
0.032857367
0.029793944
0.027226894
0.025057746
0.023189194
0.021577695
0.020159514
0.018917801
0.017806488
0.016821671
0.015928856
0.01512903
0.014397547
0.013734753
0.013126032
0.012567216
0.012054085
0.011576079
0.011138483
0.010724965
0.010347499
0.0099868122
0.009657508
0.0093409068
0.0090506915
0.0087710833
0.0085132864
0.0082647
0.0080342587
0.0078119361
0.0076044901
0.0074050772
0.0072164799
0.0070377645
0.0068643069
0.0067044389
0.0065434798
0.0064002084
0.0062504894
0.0061209866
0.0059823221
0.0058635219
0.0057362279
0.0056252563
0.0055096936
0.0054042319
0.0053004053
0.0051990186
0.0051062001
0.0050084319
0.0049251786
0.0048312021
0.0047559362
0.0046659704
0.0045975381
0.0045115518
0.0044491216
0.0043670506
0.0043096887
0.0042316371
0.0041784098
0.0041044041
0.0040547512
0.0039845966
0.0039382601
0.0038716459
0.0038284714
0.0037649953
0.0037248426
0.0036641889
0.0036267482
0.0035688386
0.0035337938
0.0034785919
0.0034458243
0.0033933012
0.0033626674
0.0033126904
0.0032837723
0.0032360145
0.003208447
0.003162728
0.0031371026
0.0030946232
0.0030727058
0.0030336916
0.0030137635
0.002973474
0.0029513014
0.0029021404
0.002878842
0.0028248165
0.0028384053
0.0028019347
0.0030471113
0.0030795377
0.054774914