/*--------------------------------*- C++ -*----------------------------------*\
| =========                 |                                                 |
| \\      /  F ield         | OpenFOAM: The Open Source CFD Toolbox           |
|  \\    /   O peration     | Version:  2406                                  |
|   \\  /    A nd           | Website:  www.openfoam.com                      |
|    \\/     M anipulation  |                                                 |
\*---------------------------------------------------------------------------*/
FoamFile
{
    version     2.0;
    format      ascii;
    arch        "LSB;label=32;scalar=64";
    class       volScalarField;
    location    "400";
    object      nut;
}
// * * * * * * * * * * * * * * * * * * * * * * * * * * * * * * * * * * * * * //

dimensions      [0 2 -1 0 0 0 0];

internalField   nonuniform List<scalar> 
16045
(
0.00014888895
0.00014713197
0.00014558308
0.00014422472
0.00014299168
0.00014188986
0.00014087299
0.00013994511
0.00013908862
0.00013828159
0.00013755221
0.00013683008
0.00013620588
0.00013554471
0.00013500861
0.00013439386
0.00013393031
0.00013335464
0.00013294855
0.00013240953
0.00013204644
0.00013154481
0.00013121068
0.00013074999
0.00013043039
0.0001300169
0.000129697
0.00012933804
0.00012900542
0.00012870432
0.00012835509
0.00012810423
0.00012774908
0.00012752573
0.00012719025
0.00012696075
0.00012667647
0.00012640879
0.00012619859
0.00012587629
0.0001257437
0.00012537125
0.00012530104
0.00012489743
0.00012486587
0.00012445317
0.0001244377
0.00012403537
0.00012401515
0.00012364412
0.00012359362
0.00012328158
0.00012316957
0.00012294456
0.00012274863
0.00012261865
0.00012234796
0.0001222819
0.0001219866
0.00012191854
0.00012166908
0.00012153281
0.00012137838
0.00012114742
0.00012108697
0.00012078602
0.00012077611
0.0001204553
0.00012044804
0.00012014104
0.00012012027
0.00011982465
0.00011980173
0.00011950331
0.00011948468
0.00011918251
0.00011916767
0.00011886287
0.00011885769
0.00011854521
0.00011855078
0.00011822027
0.00011823373
0.00011787718
0.00011790416
0.0001175287
0.00011757769
0.00011720019
0.00011727596
0.00011692734
0.00011704383
0.00011674717
0.00011688115
0.00011657174
0.00011660297
0.00011611001
0.00011591615
0.00011500037
0.00011483176
0.00011410544
0.0001488883
0.000147133
0.00014558162
0.00014422684
0.00014298884
0.0001418937
0.00014086815
0.00013995121
0.00013908142
0.00013829011
0.00013754275
0.00013684062
0.0001361948
0.00013555643
0.00013499683
0.00013440591
0.00013391847
0.00013336667
0.0001329367
0.00013242183
0.0001320341
0.00013155793
0.00013119748
0.00013076401
0.00013041663
0.00013003108
0.0001296838
0.00012935099
0.00012899407
0.00012871515
0.00012834561
0.00012811419
0.00012773852
0.00012753945
0.00012717265
0.00012698471
0.00012664607
0.00012644655
0.00012615536
0.00012592365
0.00012569596
0.00012541689
0.00012526132
0.00012492981
0.00012484309
0.00012446701
0.00012443407
0.00012403007
0.00012403217
0.00012361532
0.00012364035
0.00012321582
0.00012326245
0.00012282583
0.00012289898
0.00012244469
0.00012254581
0.00012207645
0.00012219607
0.00012172547
0.00012184482
0.00012139196
0.00012149194
0.00012107207
0.00012114072
0.00012076018
0.00012079492
0.00012045094
0.00012045738
0.00012014028
0.00012012928
0.00011982657
0.00011980892
0.00011951034
0.00011949204
0.00011919286
0.00011917704
0.00011887622
0.00011886669
0.00011856249
0.00011855835
0.00011824497
0.00011823909
0.00011791196
0.00011790613
0.00011757173
0.00011757931
0.00011724532
0.00011728433
0.00011696424
0.00011705382
0.00011676665
0.00011689416
0.00011660254
0.00011664528
0.00011619496
0.00011602129
0.00011516293
0.00011502548
0.00011430518
0.00014888882
0.00014713229
0.00014558203
0.00014422642
0.0001429887
0.00014189409
0.00014086696
0.00013995293
0.00013907871
0.00013829356
0.00013753825
0.00013684596
0.00013618857
0.00013556338
0.0001349893
0.00013441387
0.00013391025
0.00013337512
0.00013292796
0.00013243095
0.00013202423
0.00013156863
0.00013118543
0.00013077715
0.00013040206
0.00013004617
0.00012966819
0.00012936565
0.00012898038
0.00012872635
0.00012833626
0.00012812075
0.00012773292
0.00012754396
0.0001271663
0.00012699306
0.00012663235
0.00012646514
0.00012612897
0.00012595573
0.00012565633
0.00012545984
0.00012521424
0.0001249753
0.00012479845
0.00012450516
0.00012439994
0.00012405613
0.00012400925
0.00012363264
0.00012362257
0.00012323141
0.00012324358
0.00012284355
0.00012287775
0.00012246358
0.0001225245
0.00012209386
0.00012217709
0.00012173927
0.00012183029
0.00012139956
0.0001214854
0.00012106987
0.00012114557
0.0001207475
0.00012080938
0.00012043319
0.00012047381
0.00012012575
0.00012014038
0.00011981935
0.00011981414
0.00011950775
0.00011949535
0.00011919051
0.00011917942
0.00011887292
0.00011886628
0.00011855967
0.00011855903
0.00011824668
0.00011824912
0.0001179205
0.00011792496
0.0001175776
0.000117592
0.00011723626
0.00011727266
0.0001169361
0.00011701732
0.00011673728
0.00011686288
0.00011660906
0.0001166705
0.00011628781
0.00011617355
0.00011541466
0.00011492696
0.00011480928
0.00014888932
0.00014713157
0.00014558263
0.0001442257
0.00014298905
0.00014189389
0.00014086631
0.00013995432
0.00013907563
0.00013829833
0.00013753064
0.00013685635
0.00013617425
0.00013558124
0.00013496712
0.00013443942
0.00013388116
0.00013340619
0.00013289536
0.00013246334
0.00013199279
0.00013159776
0.00013115924
0.00013079986
0.00013038319
0.00013006156
0.00012965647
0.00012937483
0.000128974
0.00012873165
0.00012833254
0.00012812488
0.00012772953
0.00012754835
0.00012716316
0.00012699592
0.00012663311
0.00012646122
0.00012613952
0.00012593971
0.00012567993
0.00012543175
0.00012524678
0.00012494334
0.00012482849
0.00012448219
0.00012441533
0.00012405134
0.00012400571
0.00012364499
0.00012360619
0.00012325174
0.00012322425
0.00012286337
0.00012286142
0.00012247956
0.00012251312
0.00012210462
0.0001221724
0.00012174304
0.00012183271
0.00012139794
0.00012149027
0.00012106953
0.00012114572
0.0001207537
0.00012080353
0.0001204437
0.00012046784
0.00012013502
0.00012013971
0.00011982619
0.00011981841
0.00011951639
0.00011950214
0.00011920486
0.00011918964
0.00011889314
0.0001188818
0.00011858508
0.0001185778
0.00011827765
0.00011827022
0.00011795797
0.00011795077
0.00011762094
0.00011762586
0.00011727821
0.00011730741
0.00011696975
0.0001170429
0.00011676515
0.00011688583
0.00011663694
0.00011669717
0.00011631781
0.00011618004
0.00011540355
0.00011525695
0.00011458082
0.00014889007
0.00014713044
0.00014558384
0.00014422409
0.0001429907
0.00014189187
0.00014086821
0.00013995214
0.00013907747
0.00013829635
0.00013753203
0.00013685499
0.00013617477
0.00013558096
0.00013496632
0.0001344407
0.00013387863
0.00013340941
0.00013289086
0.00013246851
0.00013198666
0.00013160413
0.00013115268
0.00013080576
0.00013037823
0.00013006469
0.00012965546
0.00012937296
0.00012897889
0.00012872322
0.00012834448
0.00012810919
0.00012774878
0.00012752564
0.00012718889
0.00012696773
0.000126663
0.00012643049
0.00012617023
0.00012590964
0.0001257088
0.00012540396
0.00012527354
0.00012491666
0.00012485557
0.0001244533
0.00012444656
0.00012401677
0.00012404386
0.00012360353
0.00012365058
0.00012320586
0.00012327072
0.00012281803
0.00012290514
0.00012243897
0.00012255146
0.00012207012
0.00012220536
0.00012171416
0.00012186115
0.00012137469
0.00012151417
0.00012105287
0.00012116447
0.00012074429
0.00012081621
0.00012044181
0.00012047411
0.00012013898
0.00012014161
0.00011983221
0.00011981803
0.00011952103
0.00011950016
0.00011920604
0.00011918576
0.00011889027
0.00011887394
0.00011857653
0.00011856298
0.00011826279
0.00011824783
0.00011794224
0.00011792838
0.00011761303
0.00011761158
0.00011727933
0.00011730337
0.00011697444
0.00011704383
0.00011676849
0.000116886
0.00011664489
0.00011671332
0.00011636301
0.00011627545
0.00011557801
0.00011513674
0.00011501817
0.0001488901
0.0001471304
0.00014558382
0.00014422441
0.00014299004
0.00014189333
0.00014086608
0.00013995547
0.00013907335
0.00013830165
0.00013752625
0.00013686145
0.00013616849
0.0001355871
0.00013496111
0.00013444491
0.00013387608
0.00013341006
0.00013289277
0.00013246344
0.00013199568
0.00013159015
0.0001311725
0.00013077907
0.00013041242
0.00013002263
0.00012970536
0.0001293159
0.00012904244
0.00012865482
0.00012841702
0.00012803457
0.00012782535
0.00012744919
0.0001272658
0.00012689266
0.00012673695
0.0001263608
0.00012623586
0.00012585216
0.00012575814
0.00012536693
0.00012529945
0.00012490441
0.00012485768
0.00012446156
0.00012443336
0.0001240344
0.00012402726
0.00012361995
0.00012363804
0.00012321719
0.00012326244
0.000122827
0.00012289643
0.00012245135
0.00012253577
0.0001220922
0.00012217654
0.00012175006
0.0001218171
0.0001214228
0.00012145997
0.00012110369
0.00012111292
0.00012078204
0.00012078504
0.00012045023
0.00012047619
0.00012011463
0.00012016967
0.00011979381
0.00011984693
0.00011949555
0.0001195104
0.00011920435
0.00011917819
0.00011890296
0.00011886004
0.00011859305
0.00011855321
0.00011828217
0.00011825164
0.00011797019
0.00011794777
0.00011765661
0.00011763943
0.00011733764
0.0001173267
0.00011700981
0.00011700515
0.00011668815
0.0001167095
0.00011644705
0.00011652551
0.00011634051
0.00011638065
0.00011612813
0.00011618547
0.00011580567
0.00014889016
0.00014713025
0.0001455843
0.00014422352
0.00014299162
0.00014189084
0.00014086978
0.00013995027
0.0001390803
0.00013829266
0.0001375374
0.00013684794
0.00013618432
0.0001355689
0.00013498143
0.00013442254
0.00013389997
0.00013338478
0.00013291851
0.00013243746
0.00013202057
0.00013156664
0.00013119299
0.00013076178
0.00013042484
0.00013001489
0.00012970709
0.00012931946
0.00012903278
0.00012866934
0.00012839725
0.000128058
0.00012779811
0.00012747853
0.00012723423
0.00012692494
0.00012670368
0.00012639422
0.00012620163
0.00012588778
0.00012572013
0.00012540963
0.00012525118
0.00012496168
0.00012479166
0.00012453959
0.00012434623
0.00012413245
0.00012392437
0.00012372773
0.0001235335
0.0001233181
0.0001231737
0.00012290512
0.00012283614
0.00012249941
0.00012250509
0.00012211488
0.00012216709
0.00012175721
0.00012182184
0.00012141737
0.00012148222
0.00012107865
0.00012116136
0.00012073164
0.0001208587
0.00012038314
0.00012055858
0.00012004996
0.00012024248
0.00011974447
0.00011990373
0.00011946417
0.00011955106
0.00011919437
0.00011919944
0.00011891974
0.00011885962
0.00011862638
0.00011853594
0.00011831422
0.00011822396
0.0001179969
0.00011791658
0.00011767547
0.00011760978
0.00011734543
0.00011730517
0.00011702025
0.00011700539
0.00011670932
0.00011671219
0.00011645327
0.00011650498
0.0001163346
0.00011638149
0.00011617811
0.00011613871
0.0001159203
0.00014889085
0.0001471292
0.00014558543
0.00014422189
0.0001429934
0.00014188842
0.00014087233
0.00013994707
0.00013908343
0.00013828918
0.00013754033
0.00013684523
0.00013618581
0.00013556835
0.00013498015
0.00013442531
0.00013389505
0.00013339133
0.00013290998
0.00013244715
0.00013200975
0.0001315775
0.00013118251
0.00013077066
0.00013041831
0.00013001803
0.0001297082
0.00012931362
0.00012904408
0.00012865296
0.00012841911
0.00012803217
0.00012782776
0.00012744802
0.00012726484
0.00012689864
0.00012672468
0.00012638367
0.00012620187
0.00012590226
0.00012569395
0.0001254497
0.00012520395
0.00012501581
0.00012474014
0.00012458759
0.00012431147
0.00012415498
0.00012392101
0.00012371634
0.00012356204
0.00012327986
0.00012322019
0.00012285868
0.00012288055
0.00012246283
0.00012253479
0.00012209359
0.00012218409
0.00012174384
0.00012183589
0.00012140343
0.00012149753
0.00012106444
0.0001211726
0.00012072383
0.00012085918
0.00012038506
0.00012054886
0.00012005756
0.00012023044
0.00011974849
0.00011989896
0.00011945695
0.00011955736
0.00011917647
0.00011921124
0.00011889799
0.00011886855
0.00011861253
0.00011853808
0.00011831585
0.00011822104
0.00011800808
0.00011791086
0.00011769385
0.00011760998
0.00011738365
0.00011732185
0.00011705511
0.00011699826
0.00011668535
0.00011665662
0.00011640435
0.00011647588
0.00011630346
0.00011634262
0.00011601361
0.00011609724
0.00011558159
0.0001488914
0.00014712835
0.0001455865
0.00014422046
0.00014299506
0.0001418864
0.0001408745
0.00013994465
0.00013908583
0.00013828667
0.00013754266
0.00013684291
0.00013618787
0.00013556633
0.00013498189
0.00013442366
0.00013389629
0.00013339043
0.00013291017
0.00013244777
0.00013200791
0.00013158066
0.00013117779
0.00013077687
0.00013041072
0.00013002663
0.00012969911
0.00012932257
0.00012903603
0.00012865956
0.00012841463
0.00012803438
0.00012782824
0.00012744513
0.00012727049
0.00012689069
0.00012673558
0.00012637035
0.00012621868
0.00012588277
0.00012571736
0.0001254238
0.00012523346
0.0001249849
0.00012477372
0.00012455431
0.00012434636
0.00012412197
0.00012395471
0.00012368601
0.00012359212
0.0001232552
0.00012324343
0.00012284294
0.00012289471
0.00012245576
0.00012254309
0.00012208885
0.0001221944
0.00012173433
0.00012185271
0.00012138832
0.00012151829
0.00012104935
0.0001211905
0.00012071683
0.00012086741
0.00012039233
0.00012054499
0.00012007725
0.0001202216
0.0001197692
0.00011989818
0.00011946616
0.00011957237
0.00011917007
0.00011924015
0.00011888224
0.00011890393
0.00011859907
0.00011856937
0.00011831491
0.00011824596
0.00011802717
0.00011793963
0.00011773466
0.00011763976
0.00011742735
0.00011731778
0.00011707899
0.00011697382
0.00011672347
0.0001167005
0.000116501
0.00011658917
0.00011640964
0.00011642756
0.00011600233
0.00011606002
0.00011545928
0.00014889141
0.00014712833
0.00014558648
0.00014422044
0.00014299505
0.00014188634
0.00014087453
0.00013994454
0.00013908585
0.00013828663
0.00013754251
0.00013684312
0.00013618739
0.00013556689
0.00013498109
0.00013442437
0.00013389561
0.00013339061
0.00013291045
0.00013244645
0.00013201021
0.0001315769
0.00013118284
0.00013077032
0.00013041845
0.00013001793
0.00012970845
0.00012931326
0.00012904528
0.00012865133
0.0001284226
0.00012802781
0.00012783534
0.00012743876
0.00012727922
0.00012688122
0.00012674969
0.00012635385
0.00012624184
0.00012585605
0.00012575185
0.0001253856
0.00012527914
0.00012493693
0.00012482704
0.00012450192
0.0001244001
0.00012407386
0.00012399916
0.00012365223
0.00012361795
0.00012324355
0.00012324554
0.00012285534
0.00012287456
0.00012248782
0.00012250709
0.00012213323
0.00012214965
0.00012178436
0.00012180452
0.00012144036
0.0001214683
0.00012110378
0.00012113802
0.00012077376
0.00012081487
0.00012044753
0.00012049802
0.00012012622
0.0001201837
0.00011981064
0.00011987234
0.00011949729
0.00011956559
0.00011918748
0.00011925752
0.00011888799
0.00011893836
0.00011860177
0.00011860543
0.00011832031
0.00011826799
0.00011803195
0.00011794437
0.00011774035
0.0001176452
0.00011744669
0.00011734239
0.00011711532
0.0001170098
0.00011677792
0.00011676348
0.000116602
0.00011668478
0.00011649676
0.00011643252
0.00011595122
0.00011589113
0.00011534173
0.00014889156
0.0001471281
0.00014558683
0.00014421993
0.00014299574
0.00014188542
0.00014087569
0.00013994309
0.00013908756
0.00013828468
0.00013754463
0.00013684096
0.0001361895
0.00013556503
0.00013498262
0.00013442341
0.000133896
0.00013339099
0.00013290943
0.00013244822
0.00013200793
0.00013157964
0.00013117998
0.00013077312
0.00013041615
0.00013001952
0.00012970805
0.00012931249
0.00012904759
0.00012864806
0.00012842697
0.0001280235
0.0001278397
0.00012743586
0.00012728127
0.0001268813
0.0001267491
0.00012635567
0.00012624144
0.00012585548
0.00012575631
0.00012537832
0.00012529139
0.00012492243
0.00012484451
0.0001244861
0.00012441404
0.00012406716
0.00012399934
0.00012366261
0.00012360096
0.00012326858
0.00012321968
0.00012288231
0.00012285418
0.00012250427
0.00012250059
0.0001221365
0.00012215549
0.00012177904
0.00012181823
0.0001214299
0.00012148853
0.00012108854
0.00012116481
0.00012075489
0.00012084612
0.00012042712
0.00012053188
0.00012010541
0.00012021911
0.00011979129
0.00011990521
0.00011948516
0.00011958731
0.00011918869
0.00011926304
0.00011890321
0.00011893527
0.00011862176
0.00011861003
0.00011833515
0.00011829013
0.00011804898
0.00011798229
0.00011776965
0.0001176848
0.00011747123
0.00011736065
0.00011712039
0.00011701541
0.00011679657
0.00011679459
0.00011663909
0.00011669684
0.00011647756
0.00011641549
0.00011586684
0.00011548642
0.00011543072
0.00014889195
0.00014712747
0.00014558755
0.00014421902
0.00014299674
0.00014188431
0.00014087684
0.00013994196
0.00013908872
0.00013828362
0.00013754575
0.00013683993
0.00013619068
0.00013556382
0.00013498416
0.00013442153
0.00013389848
0.00013338771
0.00013291357
0.00013244287
0.00013201414
0.00013157222
0.00013118773
0.0001307648
0.00013042375
0.00013001247
0.00012971323
0.00012930892
0.00012904864
0.00012864916
0.00012842338
0.0001280294
0.00012783153
0.00012744673
0.0001272679
0.00012689849
0.00012672863
0.00012638153
0.00012621172
0.00012589146
0.00012571741
0.00012542251
0.0001252474
0.00012496898
0.0001248025
0.0001245278
0.00012438027
0.00012409962
0.00012397594
0.00012368578
0.00012358667
0.00012328384
0.00012321402
0.00012288871
0.00012285955
0.00012249947
0.00012251776
0.00012212375
0.00012217628
0.00012177149
0.00012182644
0.00012144335
0.00012147345
0.00012112564
0.00012113371
0.00012080097
0.00012081824
0.00012046452
0.0001205212
0.00012012686
0.00012022609
0.00011980275
0.0001199186
0.00011950055
0.00011959366
0.00011922059
0.00011925561
0.00011895147
0.00011892009
0.00011867296
0.00011860106
0.00011837854
0.00011829519
0.0001180819
0.00011799824
0.00011779735
0.0001177046
0.00011750298
0.00011738385
0.00011716032
0.00011704991
0.00011685506
0.00011685265
0.00011672664
0.000116782
0.00011653329
0.00011645246
0.00011576001
0.00011571835
0.00011508014
0.00014889177
0.00014712773
0.00014558736
0.0001442192
0.00014299672
0.00014188418
0.00014087728
0.00013994122
0.0001390899
0.00013828207
0.00013754775
0.0001368376
0.00013619336
0.0001355609
0.00013498731
0.00013441819
0.00013390198
0.00013338397
0.00013291743
0.00013243868
0.00013201837
0.00013156766
0.00013119217
0.00013076015
0.00013042806
0.00013000813
0.00012971706
0.00012930524
0.00012905172
0.00012864648
0.0001284252
0.0001280288
0.00012783022
0.00012745114
0.00012725954
0.00012691262
0.00012670832
0.00012640962
0.00012617676
0.00012593382
0.00012567023
0.00012547381
0.00012519572
0.00012501991
0.00012475605
0.0001245693
0.00012434641
0.0001241269
0.00012395666
0.00012369975
0.0001235785
0.0001232898
0.00012321059
0.00012289266
0.00012285604
0.0001225035
0.00012251514
0.00012212344
0.00012218111
0.00012176022
0.000121843
0.00012142183
0.00012149518
0.00012110597
0.00012114521
0.00012079818
0.00012080677
0.0001204854
0.00012048496
0.00012016602
0.00012017557
0.0001198445
0.0001198723
0.00011952591
0.00011956642
0.00011921722
0.00011924796
0.00011892283
0.00011891655
0.00011863828
0.00011858415
0.00011835517
0.00011826436
0.0001180645
0.00011796097
0.00011776667
0.0001176582
0.00011745327
0.00011733101
0.00011711538
0.00011702545
0.00011686083
0.0001168776
0.00011678617
0.00011680893
0.00011659947
0.00011645558
0.00011579346
0.00011574373
0.00011514016
0.00014889096
0.00014712896
0.00014558596
0.00014422099
0.00014299474
0.00014188647
0.00014087482
0.00013994389
0.00013908701
0.00013828516
0.00013754431
0.00013684134
0.00013618907
0.0001355656
0.00013498191
0.00013442398
0.0001338955
0.00013339063
0.00013291023
0.0001324458
0.00013201089
0.00013157495
0.00013118454
0.00013076773
0.00013042002
0.00013001648
0.00012970815
0.00012931477
0.00012904187
0.00012865684
0.00012841546
0.00012803823
0.00012782315
0.00012745662
0.00012725818
0.00012691178
0.00012671376
0.00012640323
0.00012618617
0.00012592651
0.00012567788
0.00012547146
0.00012519651
0.00012502593
0.00012474845
0.00012458339
0.00012433198
0.0001241468
0.00012393765
0.00012372374
0.00012355575
0.00012331853
0.00012318226
0.00012292963
0.00012281825
0.00012255262
0.00012246573
0.00012218402
0.00012212449
0.00012182322
0.00012179159
0.00012147248
0.00012146222
0.00012113582
0.00012113064
0.00012081649
0.00012079453
0.00012051103
0.00012045977
0.00012020811
0.00012013742
0.00011989731
0.00011983259
0.00011957826
0.00011954128
0.00011925646
0.00011925522
0.00011894016
0.00011896048
0.00011864336
0.00011864716
0.00011837019
0.00011832752
0.00011810311
0.00011802455
0.00011782112
0.00011773724
0.00011751003
0.00011743064
0.00011717741
0.00011714428
0.00011693661
0.00011701744
0.00011687825
0.00011695135
0.00011668836
0.00011660265
0.00011591127
0.00011552502
0.0001155045
0.0001488901
0.00014713024
0.00014558466
0.00014422262
0.00014299314
0.00014188826
0.00014087305
0.00013994569
0.00013908518
0.00013828683
0.00013754255
0.00013684279
0.0001361874
0.00013556699
0.00013497999
0.0001344259
0.00013389254
0.00013339412
0.00013290511
0.00013245211
0.00013200235
0.00013158538
0.00013117129
0.00013078358
0.00013040089
0.00013003867
0.00012968264
0.0001293432
0.00012901076
0.00012869005
0.00012838079
0.00012807379
0.00012778743
0.00012749214
0.00012722351
0.00012694546
0.00012668168
0.00012643359
0.00012615823
0.00012595186
0.00012565599
0.00012548986
0.00012518259
0.00012503573
0.00012474402
0.00012458322
0.00012433861
0.00012413493
0.00012395699
0.00012369902
0.00012358742
0.00012328339
0.00012322096
0.00012289216
0.00012285329
0.00012252493
0.00012248496
0.00012217633
0.00012212154
0.00012183701
0.00012177093
0.00012149932
0.00012143519
0.00012116489
0.00012110714
0.00012084034
0.00012078041
0.0001205256
0.00012045769
0.0001202126
0.00012014507
0.00011989549
0.00011984321
0.00011957535
0.00011954931
0.00011925416
0.00011925999
0.00011893649
0.00011896629
0.00011863186
0.00011865656
0.00011834642
0.00011833004
0.00011807188
0.00011800866
0.00011778928
0.00011770412
0.00011748393
0.00011739777
0.00011717612
0.00011713558
0.00011697429
0.00011703499
0.00011691578
0.000116957
0.00011665372
0.0001165575
0.00011577758
0.00011540359
0.00011537803
0.0001488899
0.00014713051
0.00014558442
0.00014422291
0.00014299287
0.00014188857
0.00014087271
0.00013994605
0.00013908474
0.00013828725
0.00013754201
0.00013684318
0.00013618688
0.0001355672
0.00013497965
0.00013442582
0.00013389243
0.00013339378
0.00013290513
0.00013245169
0.00013200233
0.00013158499
0.00013117126
0.00013078313
0.00013040099
0.00013003817
0.00012968258
0.00012934349
0.00012900904
0.00012869333
0.00012837465
0.00012808319
0.00012777388
0.00012751012
0.00012720114
0.00012697221
0.00012665183
0.00012646651
0.00012612462
0.00012598682
0.00012562259
0.00012552367
0.00012515139
0.00012506754
0.00012471508
0.00012461296
0.00012431284
0.00012416013
0.00012393878
0.00012371366
0.00012358378
0.00012328056
0.00012323775
0.00012286796
0.00012289255
0.00012247978
0.00012254482
0.00012211453
0.00012219639
0.00012176588
0.00012185293
0.00012142565
0.00012151913
0.0001210913
0.00012119097
0.00012076922
0.00012085958
0.0001204628
0.00012052571
0.00012016193
0.00012020131
0.00011985276
0.00011989453
0.0001195335
0.0001195965
0.00011921766
0.00011929069
0.00011891725
0.00011897101
0.00011863368
0.00011864563
0.00011836196
0.00011832933
0.00011809559
0.00011802838
0.00011781892
0.00011772976
0.00011750722
0.00011740347
0.00011717787
0.00011711221
0.00011695049
0.00011698507
0.00011686312
0.00011685435
0.00011656451
0.00011634444
0.00011561128
0.00011520329
0.00011521691
0.00014889035
0.00014712982
0.00014558525
0.00014422181
0.00014299409
0.00014188714
0.00014087413
0.00013994466
0.00013908579
0.00013828665
0.00013754178
0.00013684438
0.00013618434
0.00013557113
0.00013497404
0.0001344329
0.00013388375
0.00013340348
0.00013289441
0.0001324624
0.00013199157
0.00013159445
0.00013116263
0.00013078957
0.00013039553
0.00013004164
0.00012967908
0.00012934638
0.00012900445
0.00012869902
0.00012836617
0.00012809335
0.00012776173
0.00012752254
0.00012718969
0.00012698084
0.00012664839
0.00012646368
0.00012613651
0.00012596641
0.00012565412
0.00012548368
0.00012520213
0.00012501085
0.00012477978
0.00012454687
0.00012438215
0.00012409556
0.00012400058
0.00012366279
0.00012362752
0.00012325032
0.00012326195
0.00012285312
0.00012290809
0.00012246515
0.00012256708
0.00012208734
0.00012223245
0.00012172571
0.00012189726
0.00012138238
0.00012156042
0.00012105556
0.00012122108
0.00012074649
0.00012087471
0.00012045664
0.00012052235
0.00012017781
0.00012017719
0.00011989245
0.00011985522
0.0001195881
0.0001195613
0.00011926555
0.00011928579
0.00011894095
0.0001190072
0.0001186373
0.0001186997
0.00011836821
0.00011836086
0.00011811381
0.00011803302
0.00011783608
0.00011773055
0.00011752686
0.0001174161
0.00011721765
0.00011715318
0.00011702989
0.00011705675
0.00011694847
0.00011690627
0.00011656622
0.00011628587
0.0001155058
0.00011538515
0.00011505145
0.00014888984
0.00014713056
0.00014558448
0.00014422283
0.00014299305
0.00014188844
0.00014087286
0.00013994618
0.00013908434
0.00013828836
0.00013754009
0.00013684644
0.00013618208
0.00013557396
0.0001349706
0.00013443719
0.00013387833
0.00013340994
0.00013288648
0.00013247122
0.00013198141
0.00013160478
0.00013115184
0.00013079912
0.00013038708
0.00013004712
0.00012967641
0.00012934476
0.00012901003
0.00012868875
0.00012838073
0.00012807466
0.00012778441
0.00012749695
0.00012721878
0.0001269504
0.00012668152
0.0001264315
0.0001261697
0.00012593734
0.00012568199
0.00012546296
0.00012522048
0.00012500072
0.00012478911
0.00012454385
0.00012438854
0.00012409166
0.00012401227
0.00012365083
0.00012364866
0.00012323029
0.00012328826
0.00012283324
0.00012293006
0.0001224544
0.00012257945
0.00012208704
0.00012223767
0.00012173314
0.00012189568
0.00012140281
0.00012154253
0.0001211003
0.00012117998
0.00012081457
0.00012082189
0.00012052919
0.0001204802
0.00012023409
0.00012015878
0.00011992823
0.0001198528
0.00011961849
0.00011955381
0.00011931142
0.00011925756
0.00011900617
0.00011896862
0.00011869485
0.00011869004
0.00011838519
0.00011840552
0.00011810132
0.00011809867
0.00011784158
0.00011777249
0.00011755064
0.0001174365
0.00011724376
0.00011718522
0.00011707204
0.00011709817
0.00011696763
0.00011689005
0.0001164844
0.00011623349
0.00011533145
0.00011531192
0.00011587897
0.00014889016
0.00014713005
0.00014558517
0.00014422196
0.0001429941
0.00014188728
0.00014087408
0.00013994494
0.00013908556
0.00013828707
0.00013754144
0.00013684476
0.00013618402
0.00013557137
0.00013497351
0.0001344336
0.00013388181
0.00013340635
0.00013288895
0.00013246965
0.00013198077
0.00013160703
0.00013114709
0.00013080516
0.00013037951
0.0001300545
0.00012966942
0.00012934966
0.00012900728
0.00012868849
0.00012838363
0.00012806929
0.0001277919
0.0001274881
0.00012722936
0.00012693922
0.0001266948
0.00012641775
0.00012618641
0.00012592014
0.00012570285
0.00012544166
0.00012524591
0.00012497486
0.00012481942
0.00012451326
0.00012442366
0.00012405667
0.00012405198
0.00012361164
0.0001236935
0.00012318636
0.00012333853
0.0001227861
0.00012298135
0.00012241189
0.00012262093
0.00012206033
0.0001222605
0.00012172496
0.00012190515
0.00012139933
0.00012155897
0.00012107974
0.00012122118
0.00012076895
0.00012088416
0.00012047275
0.00012054426
0.00012018477
0.00012021464
0.00011988538
0.00011991091
0.000119571
0.00011961811
0.00011926792
0.00011930949
0.00011898372
0.00011899818
0.00011868657
0.00011871153
0.0001183738
0.00011842944
0.00011808947
0.00011811737
0.00011783568
0.00011777877
0.00011755047
0.00011743956
0.00011726117
0.00011721783
0.00011713391
0.00011713662
0.00011697542
0.0001168389
0.00011631266
0.00011612967
0.00011508217
0.00011597817
0.00011634053
0.00014889115
0.00014712855
0.00014558675
0.00014421988
0.00014299619
0.00014188475
0.00014087657
0.00013994196
0.00013908853
0.00013828335
0.00013754534
0.00013683968
0.00013618957
0.00013556417
0.00013498139
0.00013442378
0.00013389224
0.00013339413
0.0001329012
0.00013245641
0.00013199287
0.00013159545
0.00013115596
0.00013079855
0.00013038226
0.00013005486
0.00012966555
0.00012935573
0.00012900008
0.00012869508
0.00012837977
0.00012806906
0.00012779863
0.00012747478
0.00012725162
0.00012690937
0.00012673471
0.00012637042
0.00012624364
0.00012585716
0.00012577345
0.00012536954
0.0001253204
0.00012490583
0.00012488365
0.0001244618
0.00012446454
0.0001240325
0.00012406447
0.00012361432
0.00012368339
0.00012320581
0.00012331913
0.00012280758
0.00012296758
0.00012242164
0.00012262421
0.00012205
0.00012228585
0.00012169295
0.00012195159
0.00012134847
0.00012162145
0.00012101585
0.00012129244
0.00012069889
0.00012095742
0.00012040392
0.00012060917
0.00012013286
0.00012024984
0.00011987365
0.00011989698
0.00011960116
0.00011957407
0.00011930093
0.00011928011
0.00011898866
0.00011899379
0.00011867989
0.00011871148
0.00011837643
0.00011843545
0.00011809544
0.00011813712
0.00011783217
0.00011777882
0.00011753598
0.00011743412
0.00011728534
0.00011726954
0.00011719984
0.00011716897
0.00011694996
0.00011676113
0.00011609621
0.0001158294
0.00011506293
0.00011648229
0.00011837714
0.00014889089
0.00014712917
0.00014558496
0.00014422248
0.00014299176
0.00014189033
0.00014086877
0.00013995085
0.0001390776
0.00013829476
0.00013753269
0.0001368517
0.00013617755
0.00013557429
0.00013497248
0.00013442984
0.00013388809
0.00013339519
0.00013290195
0.00013245316
0.00013199707
0.00013158995
0.00013116118
0.00013079336
0.00013038594
0.00013005238
0.00012966569
0.00012935748
0.00012899579
0.00012870133
0.00012837148
0.0001280789
0.00012778771
0.00012748672
0.0001272395
0.00012692223
0.00012672221
0.00012638386
0.00012623061
0.00012587174
0.00012575885
0.0001253868
0.00012530227
0.00012492798
0.00012486003
0.00012449022
0.0001244355
0.00012406587
0.00012403271
0.0001236497
0.00012365081
0.00012324313
0.00012328248
0.0001228526
0.00012291884
0.00012248299
0.00012255695
0.00012213171
0.00012220194
0.00012178913
0.00012186161
0.00012144648
0.0001215386
0.00012110323
0.00012122786
0.00012076647
0.00012092125
0.00012044234
0.00012061353
0.00012012997
0.00012030435
0.0001198223
0.00012000157
0.00011950715
0.00011971672
0.00011918133
0.00011944271
0.00011886596
0.00011915288
0.00011858444
0.00011883915
0.00011833264
0.00011852076
0.00011809187
0.00011819655
0.00011784135
0.00011783046
0.00011756149
0.00011750104
0.00011735758
0.00011736054
0.00011727071
0.00011721274
0.00011691017