/*--------------------------------*- C++ -*----------------------------------*\
| =========                 |                                                 |
| \\      /  F ield         | OpenFOAM: The Open Source CFD Toolbox           |
|  \\    /   O peration     | Version:  2406                                  |
|   \\  /    A nd           | Website:  www.openfoam.com                      |
|    \\/     M anipulation  |                                                 |
\*---------------------------------------------------------------------------*/
FoamFile
{
    version     2.0;
    format      ascii;
    arch        "LSB;label=32;scalar=64";
    class       volScalarField;
    location    "400";
    object      omega;
}
// * * * * * * * * * * * * * * * * * * * * * * * * * * * * * * * * * * * * * //

dimensions      [0 0 -1 0 0 0 0];

internalField   nonuniform List<scalar> 
16045
(
367.88993
320.04503
283.08095
253.69537
229.79183
209.97569
193.28794
179.04418
166.74781
156.02509
146.59445
138.23527
130.77596
124.07884
118.03265
112.54805
107.54907
102.97565
98.774307
94.902516
91.322808
88.002609
84.916685
82.038056
79.350665
76.83118
74.469963
72.24649
70.155743
68.178876
66.315188
64.545684
62.874625
61.281158
59.774765
58.332332
56.967409
55.655978
54.413106
53.216385
52.079324
50.983742
49.938997
48.933008
47.969372
47.043091
46.151091
45.29617
44.467581
43.67707
42.904732
42.172518
41.450672
40.770648
40.09544
39.461015
38.830377
38.234808
37.647479
37.084733
36.539391
36.004469
35.49978
34.988313
34.523156
34.031474
33.604077
33.130427
32.73709
32.282289
31.91771
31.483703
31.143101
30.730735
30.411273
30.019898
29.71989
29.348764
29.066446
28.715363
28.448741
28.117821
27.864967
27.554324
27.313749
27.02288
26.794367
26.521348
26.306247
26.048182
25.848178
25.602603
25.418592
25.183786
25.015665
24.790602
24.641622
24.424653
24.246862
23.93333
367.88991
320.04501
283.08077
253.69529
229.79146
209.9756
193.28736
179.0441
166.74706
156.02495
146.59368
138.23488
130.77541
124.07796
118.03255
112.5465
107.54952
102.97342
98.775173
94.899894
91.323699
88.000069
84.917062
82.036157
79.349979
76.830425
74.467774
72.24723
70.151808
68.181208
66.309564
64.549366
62.867741
61.285559
59.767414
58.336512
56.960585
55.65895
54.407665
53.217485
52.075621
50.982906
49.93679
48.930659
47.968152
47.039613
46.150657
45.291464
44.468245
43.670721
42.906759
42.164622
41.453383
40.762447
40.097137
39.454309
38.829541
38.2305
37.644023
37.082168
36.534474
36.002345
35.494536
34.985906
34.517893
34.028817
33.598695
33.127559
32.731734
32.278978
31.912658
31.479803
31.13838
30.726367
30.406701
30.015286
29.715351
29.343868
29.062151
28.709854
28.445149
28.111191
27.862572
27.546188
27.312694
27.013481
26.793862
26.511915
26.304613
26.040104
25.844231
25.595722
25.412788
25.176483
25.008614
24.781929
24.633314
24.414589
24.235923
23.9234
367.88991
320.04499
283.08072
253.69526
229.79139
209.97551
193.28733
179.04391
166.74711
156.02466
146.59378
138.23459
130.77541
124.07785
118.03223
112.54682
107.54863
102.9744
98.77357
94.901547
91.321491
88.002164
84.914604
82.038268
79.347716
76.832174
74.465957
72.248552
70.15029
68.182458
66.307834
64.551126
62.865222
61.288314
59.763754
58.340441
56.955749
55.66393
54.401891
53.223119
52.06944
50.988464
49.931096
48.935091
47.964037
47.041854
46.148946
45.290967
44.469081
43.667732
42.909545
42.159942
41.457154
40.756958
40.101071
39.448669
38.83308
38.22517
37.646711
37.077537
36.535802
35.998968
35.493693
34.984611
34.514085
34.029853
33.59226
33.129722
32.724368
32.280224
31.906098
31.478967
31.132793
30.723959
30.401024
30.012132
29.709021
29.339944
29.055168
28.704958
28.437306
28.105429
27.853478
27.539708
27.302003
27.006359
26.781486
26.503613
26.291386
26.029246
25.83114
25.581843
25.39914
25.160795
24.993737
24.764591
24.609935
24.386744
24.283165
23.851065
367.88992
320.04496
283.08073
253.69519
229.79133
209.97545
193.28713
179.04392
166.7467
156.0248
146.59313
138.23484
130.77457
124.07815
118.03127
112.54712
107.54759
102.9747
98.7724
94.901939
91.320099
88.002716
84.912997
82.03886
79.34617
76.832376
74.465035
72.247735
70.150608
68.180103
66.309732
64.547117
62.86858
61.282971
59.768082
58.334339
56.960424
55.657676
54.406323
53.217213
52.073213
50.983164
49.934131
48.93025
47.966639
47.037005
46.151575
45.285732
44.471948
43.662121
42.912445
42.15423
41.459757
40.751424
40.10309
39.443651
38.834074
38.221213
37.646052
37.075141
36.533269
35.997756
35.490314
34.98298
34.511544
34.026529
33.590895
33.125298
32.722863
32.276113
31.903262
31.475563
31.128804
30.720347
30.396699
30.007473
29.704488
29.334315
29.050087
28.698446
28.43177
28.09792
27.847641
27.531346
27.295799
26.997581
26.774713
26.494941
26.283963
26.020965
25.823432
25.573895
25.391657
25.153094
24.986329
24.757614
24.608163
24.388166
24.215575
23.89591
367.88983
320.04511
283.08056
253.69535
229.7911
209.97559
193.28685
179.04408
166.74632
156.02504
146.59256
138.23531
130.77365
124.07899
118.0299
112.5484
107.54576
102.97636
98.770263
94.903811
91.317827
88.004666
84.910685
82.040873
79.34377
76.834565
74.462425
72.250221
70.147708
68.182919
66.306564
64.550195
62.865248
61.286157
59.764782
58.337361
56.957461
55.660183
54.403975
53.219028
52.0714
50.984648
49.932124
48.932372
47.963224
47.040941
46.145695
45.292196
44.463301
43.670901
42.901626
42.164271
41.448003
40.761309
40.091728
39.452242
38.823849
38.228124
37.636939
37.080532
36.525035
36.001702
35.482987
34.985341
34.505271
34.027101
33.585883
33.123877
32.719143
32.27304
31.900177
31.4717
31.125638
30.716282
30.393217
30.003439
29.700721
29.3303
29.046218
28.694308
28.427864
28.09337
27.843764
27.525922
27.291792
26.991005
26.769976
26.487399
26.277616
26.012493
25.815098
25.563853
25.381326
25.140926
24.973986
24.742593
24.587923
24.36331
24.257785
23.826362
367.8898
320.04513
283.08053
253.69534
229.79108
209.97549
193.28692
179.04378
166.74658
156.02443
146.59309
138.23431
130.7745
124.07762
118.03102
112.54674
107.54707
102.97451
98.771662
94.901855
91.319286
88.0026
84.912269
82.038602
79.345615
76.831954
74.464667
72.247159
70.150431
68.179374
66.309737
64.546285
62.868651
61.282199
59.768001
58.333791
56.96008
55.657265
54.405908
53.2166
52.072993
50.982253
49.933721
48.929874
47.964526
47.039039
46.145684
45.292003
44.461034
43.672869
42.897243
42.167574
41.442888
40.76426
40.087689
39.453197
38.822234
38.226154
37.638175
37.0758
36.528415
35.995518
35.486728
34.979856
34.507025
34.024671
33.583341
33.126406
32.711066
32.280347
31.888346
31.480313
31.114322
30.721819
30.385662
30.00415
29.696714
29.327689
29.043343
28.69053
28.424291
28.089566
27.838641
27.522312
27.285508
26.986535
26.76358
26.481066
26.27103
26.004686
25.807039
25.555307
25.371189
25.130877
24.96203
24.731081
24.580483
24.357699
24.18423
23.866
367.88989
320.045
283.08066
253.69512
229.79125
209.97518
193.28711
179.0434
166.74679
156.02397
146.59333
138.23376
130.77479
124.07693
118.03144
112.54583
107.54773
102.97327
98.772701
94.900138
91.320891
88.000243
84.914576
82.035557
79.348601
76.828365
74.468107
72.24334
70.15399
68.17565
66.313166
64.542813
62.871877
61.27899
59.770992
58.33095
56.962551
55.655216
54.40725
53.215991
52.072582
50.983445
49.931485
48.932432
47.961297
47.041746
46.142825
45.293496
44.459593
43.672405
42.897416
42.165375
41.443995
40.761298
40.088602
39.450416
38.822298
38.22363
37.637671
37.073011
36.527563
35.992914
35.484037
34.979822
34.499468
34.029958
33.56921
33.136902
32.692345
32.292597
31.869037
31.490617
31.097226
30.728259
30.372018
30.005636
29.687646
29.323386
29.038867
28.681888
28.422115
28.079209
27.836995
27.511333
27.283761
26.975876
26.760628
26.471813
26.266386
25.996635
25.800913
25.547638
25.364118
25.123055
24.954139
24.722302
24.57169
24.347873
24.173887
23.856403
367.88987
320.04502
283.0806
253.69515
229.79114
209.97524
193.28693
179.04347
166.74651
156.02407
146.59297
138.23386
130.77439
124.07699
118.03105
112.54579
107.54741
102.9731
98.772506
94.899812
91.320842
87.999781
84.914649
82.035034
79.348708
76.827917
74.468107
72.243134
70.153747
68.175801
66.312627
64.543309
62.871128
61.279675
59.770227
58.331575
56.962009
55.655516
54.407178
53.21569
52.073191
50.982335
49.932806
48.930608
47.963024
47.039668
46.144369
45.291749
44.460329
43.67149
42.896906
42.16558
41.44214
40.762526
40.085676
39.452252
38.818654
38.225831
37.633312
37.075782
36.522236
35.996344
35.478119
34.98299
34.49441
34.031278
33.566386
33.135768
32.691631
32.28999
31.868867
31.488511
31.095621
30.728257
30.368025
30.007685
29.682003
29.325934
29.033334
28.682779
28.418277
28.077394
27.834725
27.507636
27.282046
26.970926
26.759697
26.46572
26.266116
25.991132
25.80071
25.54427
25.364138
25.122313
24.955555
24.724876
24.574857
24.353054
24.179948
23.861569
367.88988
320.045
283.0806
253.69511
229.79111
209.97518
193.28685
179.04339
166.74637
156.02396
146.59279
138.2337
130.77421
124.07674
118.03092
112.54542
107.54737
102.97258
98.772598
94.899133
91.321073
87.998993
84.914966
82.034254
79.348982
76.827333
74.468157
72.24295
70.15342
68.176127
66.311916
64.544048
62.870253
61.280502
59.769572
58.332045
56.961997
55.655209
54.408135
53.214325
52.075216
50.979897
49.935676
48.927449
47.966161
47.036453
46.146958
45.289192
44.461675
43.670027
42.896765
42.165155
41.4408
40.762596
40.083723
39.452317
38.816221
38.226156
37.629812
37.077001
36.517242
35.998424
35.472131
34.984893
34.488768
34.031383
33.562602
33.132712
32.690302
32.284092
31.868439
31.482138
31.093285
30.723928
30.362035
30.006104
29.672698
29.325894
29.022603
28.681768
28.408627
28.07324
27.827287
27.500203
27.275991
26.961187
26.75423
26.453748
26.261457
25.976913
25.795865
25.529936
25.356892
25.109622
24.945639
24.712491
24.563425
24.339714
24.167497
23.848212
367.88985
320.04502
283.08054
253.69515
229.79099
209.97524
193.28664
179.04347
166.74608
156.02404
146.5924
138.23379
130.77373
124.07686
118.03033
112.54561
107.54663
102.97292
98.771621
94.899763
91.319755
88.000007
84.913288
82.035618
79.34711
76.828807
74.466449
72.244153
70.152268
68.176779
66.311445
64.544273
62.870073
61.280924
59.768893
58.333463
56.960125
55.658047
54.404912
53.218389
52.071006
50.98462
49.931051
48.93222
47.961662
47.040693
46.143118
45.29227
44.459166
43.671156
42.896451
42.163423
41.443503
40.75736
40.08968
39.443746
38.824795
38.215184
37.639821
37.064799
36.52757
35.985739
35.482384
34.971613
34.49917
34.01736
33.572751
33.118756
32.698971
32.271179
31.874853
31.470614
31.096903
30.71462
30.361535
30.000231
29.66727
29.323143
29.013728
28.679639
28.399026
28.069143
27.818725
27.493179
27.268445
26.951973
26.746492
26.443408
26.252676
25.965591
25.786273
25.517004
25.346638
25.095011
24.933714
24.696522
24.54905
24.32184
24.148401
23.829641
367.88985
320.04503
283.0805
253.69515
229.79091
209.97521
193.28651
179.04341
166.74587
156.02396
146.59213
138.23367
130.7734
124.0767
118.02996
112.54541
107.54621
102.97274
98.771101
94.899692
91.31904
88.000194
84.912265
82.036208
79.345689
76.829891
74.464635
72.245677
70.150256
68.178449
66.309688
64.54553
62.869235
61.281077
59.7696
58.332021
56.962595
55.65505
54.408783
53.214327
52.075701
50.979867
49.936415
48.926504
47.96822
47.033171
46.151642
45.282298
44.469766
43.659205
42.907848
42.151376
41.453267
40.747657
40.095686
39.437691
38.826696
38.212194
37.638744
37.063592
36.524504
35.98568
35.477551
34.972636
34.492643
34.019158
33.56504
33.120707
32.690606
32.272873
31.866074
31.471642
31.08838
30.713655
30.354923
29.995569
29.663645
29.314701
29.011683
28.67017
28.395265
28.061475
27.812114
27.486801
27.260711
26.944843
26.739185
26.435062
26.245445
25.956376
25.778875
25.506839
25.338869
25.084366
24.925036
24.685189
24.533054
24.30208
24.195335
23.76462
367.88987
320.04497
283.08057
253.695
229.79105
209.9749
193.28675
179.04288
166.74625
156.02319
146.59263
138.23272
130.77395
124.07564
118.03047
112.54436
107.54662
102.97174
98.77143
94.898692
91.319437
87.999037
84.912968
82.034679
79.346953
76.82781
74.466618
72.243012
70.152929
68.175378
66.312802
64.542416
62.872377
61.278359
59.772343
58.330042
56.964696
55.653828
54.410371
53.213441
52.077299
50.978606
49.938676
48.924198
47.971551
47.029549
46.155959
45.277617
44.474524
43.654114
42.91216
42.146823
41.455965
40.744827
40.095535
39.437528
38.823289
38.21407
37.63391
37.064353
36.522142
35.981441
35.48035
34.962732
34.498958
34.007139
33.570366
33.110933
32.691667
32.267104
31.862894
31.468304
31.083872
30.709356
30.352417
29.987607
29.66465
29.303071
29.014456
28.657717
28.396436
28.050795
27.809709
27.478395
27.255263
26.937004
26.732347
26.426114
26.238114
25.945682
25.770863
25.494339
25.329532
25.070322
24.912768
24.670169
24.522447
24.291014
24.119819
23.796697
367.88986
320.04495
283.08052
253.69499
229.79092
209.97492
193.28648
179.04296
166.7458
156.02335
146.59197
138.23293
130.77312
124.07588
118.02953
112.54457
107.54564
102.97188
98.770472
94.898755
91.318521
87.999067
84.912051
82.034803
79.345924
76.828211
74.465341
72.243871
70.151299
68.176795
66.310826
64.544317
62.87028
61.280375
59.77066
58.331468
56.964202
55.653828
54.411755
53.211465
52.080733
50.974738
49.943634
48.919152
47.97702
47.024346
46.160856
45.27315
44.478116
43.650749
42.914389
42.144212
41.457431
40.74225
40.096823
39.434786
38.823958
38.212286
37.632299
37.065184
36.517184
35.984742
35.473644
34.965557
34.494178
34.005844
33.570413
33.10379
32.696879
32.255173
31.870988
31.454935
31.0908
30.698724
30.35462
29.982275
29.661253
29.302025
29.008465
28.656712
28.392255
28.046772
27.808021
27.472625
27.253137
26.931793
26.727892
26.420976
26.231809
25.938773
25.762962
25.484449
25.320092
25.055936
24.902237
24.650798
24.509861
24.271053
24.095702
23.778773
367.88986
320.04494
283.08051
253.69495
229.79088
209.97482
193.2864
179.04278
166.74569
156.02306
146.59184
138.23254
130.77296
124.0754
118.02931
112.54404
107.54536
102.97134
98.770114
94.898241
91.318084
87.998638
84.91152
82.034542
79.34525
76.828255
74.464418
72.24442
70.149959
68.178086
66.308901
64.546516
62.867714
61.283448
59.767632
58.335065
56.961205
55.65726
54.409535
53.213872
52.080018
50.975465
49.944717
48.918126
47.979584
47.021985
46.164347
45.269829
44.482255
43.646412
42.919394
42.138318
41.463987
40.733908
40.105829
39.423177
38.83588
38.197536
37.646115
37.049399
36.529759
35.971651
35.481516
34.957358
34.49722
34.00029
33.572564
33.096251
32.701835
32.243454
31.878638
31.440584
31.098276
30.684661
30.358387
29.971699
29.657952
29.296946
28.997554
28.654922
28.377723
28.043018
27.794168
27.463971
27.239935
26.920115
26.711754
26.408656
26.211081
25.925308
25.738117
25.468508
25.291866
25.036978
24.87242
24.629072
24.474714
24.23921
24.13193
23.702114
367.88986
320.04492
283.08049
253.6949
229.79082
209.9747
193.28629
179.04258
166.74551
156.02277
146.59158
138.23217
130.77261
124.07497
118.02886
112.54357
107.5448
102.97085
98.769463
94.897748
91.317374
87.998143
84.910818
82.034031
79.344633
76.827731
74.463931
72.243949
70.149561
68.177833
66.308441
64.546734
62.866945
61.284452
59.766214
58.337237
56.95867
55.661082
54.40529
53.21985
52.073515
50.983879
49.935775
48.928738
47.968602
47.034043
46.152093
45.282422
44.469475
43.658777
42.906685
42.149798
41.452047
40.743548
40.095899
39.429381
38.829718
38.198597
37.644884
37.045007
36.532598
35.96362
35.485951
34.948202
34.500972
33.991818
33.574222
33.089518
32.700743
32.238754
31.875114
31.43712
31.093635
30.681172
30.353813
29.96752
29.653687
29.292426
28.992688
28.651371
28.370883
28.040588
27.786284
27.460239
27.233011
26.913345
26.706035
26.399289
26.205924
25.914163
25.733499
25.456702
25.287124
25.025476
24.866087
24.619351
24.466049
24.228569
24.124112
23.693566
367.88985
320.04491
283.08045
253.69486
229.79074
209.97461
193.28615
179.04241
166.74529
156.02253
146.59127
138.23183
130.77223
124.07449
118.02848
112.54291
107.54448
102.96996
98.769267
94.896629
91.317336
87.996837
84.91093
82.032619
79.344902
76.826243
74.464472
72.242266
70.15069
68.175624
66.310642
64.54357
62.870657
61.280072
59.771521
58.331824
56.965065
55.655401
54.411647
53.215149
52.078345
50.981539
49.937645
48.92989
47.966464
47.03934
46.145457
45.291907
44.45856
43.671714
42.892557
42.164695
41.436277
40.75881
40.079635
39.4443
38.812979
38.213526
37.627072
37.060326
36.51364
35.979009
35.466282
34.963199
34.481023
34.005801
33.554954
33.101244
32.683457
32.247387
31.859954
31.443548
31.07917
30.686679
30.339868
29.970952
29.642533
29.291261
28.986108
28.645167
28.367556
28.032357
27.782743
27.453202
27.228097
26.907461
26.701454
26.393659
26.20269
25.909265
25.731686
25.452813
25.287072
25.022237
24.867654
24.614234
24.468099
24.221933
24.118602
23.692869
367.88985
320.04491
283.08041
253.6948
229.79065
209.9745
193.28598
179.04221
166.74504
156.0222
146.59096
138.23132
130.77192
124.07373
118.02826
112.54179
107.54447
102.96841
98.769549
94.894647
91.31788
87.994586
84.91156
82.030409
79.345352
76.82442
74.464549
72.241033
70.150407
68.174963
66.310185
64.543361
62.870193
61.280287
59.770992
58.332681
56.964073
55.657385
54.40953
53.218861
52.074393
50.987452
49.931396
48.938106
47.957877
47.049534
46.134924
45.30337
44.446859
43.683461
42.880639
42.175779
41.424812
40.768838
40.068552
39.453691
38.80159
38.222995
37.614911
37.069918
36.501224
35.987697
35.454959
34.969453
34.472059
34.008459
33.549028
33.099475
32.681258
32.240087
31.862106
31.430498
31.084476
30.670271
30.344137
29.95613
29.640373
29.282069
28.975464
28.640528
28.352608
28.025812
27.770256
27.440792
27.218099
26.89257
26.690247
26.378726
26.190573
25.893264
25.719642
25.436018
25.274828
25.005293
24.854502
24.597461
24.456579
24.207955
24.056552
23.716732
367.88984
320.0449
283.08038
253.69475
229.79056
209.97436
193.28584
179.04194
166.74487
156.02173
146.59081
138.23055
130.7719
124.07253
118.02853
112.53998
107.54521
102.96585
98.770908
94.891303
91.319831
87.990662
84.91382
82.026412
79.34737
76.821096
74.465643
72.239145
70.150048
68.174982
66.308296
64.545176
62.8673
61.28317
59.76812
58.335436
56.962559
55.658517
54.410802
53.216866
52.079605
50.981374
49.940747
48.928299
47.97004
47.037888
46.147312
45.292506
44.456891
43.675254
42.887175
42.170319
41.428503
40.764895
40.070613
39.450303
38.802386
38.220138
37.61435
37.06713
36.500618
35.982527
35.45744
34.958797
34.479639
33.992305
33.559492
33.081971
32.68954
32.226058
31.864866
31.420886
31.083284
30.661542
30.343658
29.943719
29.64426
29.265015
28.9815
28.624917
28.352474
28.019721
27.759251
27.442671
27.203903
26.891696
26.681292
26.371694
26.184103
25.884668
25.71167
25.425864
25.265627
24.992745
24.842501
24.583614
24.440535
24.195324
24.023545
23.69866
367.88985
320.04487
283.08035
253.69467
229.79047
209.9742
193.28565
179.04169
166.74455
156.02135
146.59037
138.23002
130.77135
124.07181
118.02791
112.53903
107.54458
102.96463
98.770323
94.889793
91.319349
87.988879
84.913472
82.024435
79.347157
76.819046
74.465592
72.237093
70.150302
68.172862
66.309127
64.542833
62.868976
61.280515
59.770704
58.332576
56.965817
55.655711
54.414344
53.214326
52.083093
50.979141
49.944029
48.926208
47.973157
47.035668
46.150259
45.290171
44.459148
43.673577
42.887479
42.170702
41.42552
40.768154
40.064411
39.455336
38.794943
38.224552
37.607629
37.069993
36.493791
35.986359
35.446605
34.967831
34.461648
34.00739
33.536483
33.098437
32.667287
32.238651
31.846226
31.429647
31.065553
30.669568
30.325148
29.949717
29.628233
29.265325
28.9695
28.620527
28.341066
28.014277
27.746321
27.43577
27.191285
26.881738
26.669706
26.359125
26.172743
25.870173
25.699914
25.409806
25.252831
24.974043
24.828046
24.559272
24.41898
24.156526
24.02042
23.648887
367.88982
320.04486
283.08028
253.69463
229.79033
209.97411
193.28537
179.04154
166.74405
156.02121
146.58952
138.23003
130.76997
124.07216
118.02577
112.53997
107.54145
102.96635
98.766107
94.892286
91.31426
87.991821
84.90807
82.027227
79.342195
76.821095
74.461651
72.238216
70.147452
68.173459
66.30694
64.543651
62.86685
61.28224
59.768157
58.335658
56.962452
55.660504
54.409668
53.221152
52.076698
50.98792
49.9362
48.93585
47.965386
47.043912
46.144976
45.294415
44.458424
43.672467
42.891455
42.165279
41.431931
40.761419
40.069755
39.450516
38.796438
38.223429
37.604507
37.072412
36.486923
35.991123
35.437179
34.973711
34.450478
34.013805
33.523791
33.105047
32.654359
32.242734
31.837444
31.42587
31.065285
30.656814
30.32961
29.93586
29.628197
29.256868
28.963423
28.61407
28.334132
28.005756
27.73883
27.427275
27.180619
26.87324
26.658251
26.34753
26.161474
25.856411
25.687081
25.394484
25.238033
24.956405
24.80995
24.538255
24.397996
24.135425
23.961746
23.63234
367.8898
320.04488
283.08019
253.69462
229.79012
209.97405
193.28499
179.04142
166.74344
156.02105
146.58863
138.22986
130.76871
124.07204
118.02406
112.53998
107.53921
102.96656
98.763305
94.892728
91.310947
87.992417
84.904486
82.027716
79.338823
76.82103
74.45915
72.23712
70.146418
68.171124
66.307572
64.540388
62.868809
61.278778
59.770768
58.332756
56.965091
55.658564
54.411987
53.220172
52.078539
50.987729
49.937392
48.936341
47.965698
47.045045
46.14432
45.295887
44.457326
43.673141
42.891468
42.162988
41.435321
40.753751
40.078398
39.436186
38.810784
38.20305
37.623182
37.048317
36.507097
35.966389
35.455707
34.951105
34.464761
33.995541
33.531616
33.09351
32.65301
32.240812
31.824554
31.434874
31.040895
30.674964
30.296674
29.959179
29.590884
29.280653
28.927062
28.632116
28.305074
28.013141
27.719191
27.42568
27.165897
26.867706
26.644649
26.339395
26.149104
25.844746
25.67527
25.380913
25.224909
24.941327
24.795789
24.519671
24.378714
24.105099
23.97179
23.584497
367.88975
320.04492
283.08008
253.69461
229.78993
209.97394
193.28469
179.04117
166.74301
156.02062
146.58807
138.22918
130.76806
124.07105
118.02335
112.53864
107.53846
102.96488
98.762444
94.89085
91.309842
87.990532
84.903027
82.025974
79.337039
76.81947
74.45724
72.235702
70.144666
68.169841
66.306219
64.539326
62.868011
61.278028
59.770678
58.332254
56.965849
55.658123
54.413651
53.219532
52.081085
50.986559
49.940859
48.934209
47.970246
47.041574
46.14996
45.29109
44.463479
43.667742
42.896864
42.158307
41.438679
40.75079
40.079513
39.434403
38.810948
38.200502
37.624204
37.043499
36.509602
35.959731
35.458492
34.944132
34.466497
33.988488
33.532765
33.085187
32.654207
32.231845
31.823688
31.427866
31.037329
30.666467
30.298074
29.939961
29.603099
29.252532
28.939835
28.609718
28.305859
28.001858
27.709692
27.419595
27.151624
26.86273
26.628557
26.331339
26.134955
25.831366
25.661466
25.364406
25.208313
24.921291
24.774695
24.494114
24.352486
24.072943
23.913924
23.563667
367.8897
320.04496
283.07994
253.69462
229.78966
209.97387
193.28426
179.04098
166.74238
156.02029
146.5872
138.22873
130.76688
124.07051
118.02177
112.53809
107.53634
102.96446
98.759639
94.890727
91.306213
87.990842
84.898544
82.026739
79.331908
76.820489
74.45199
72.236534
70.140103
68.169938
66.303207
64.538284
62.867125
61.275877
59.771855
58.329573
56.96834
55.655789
54.416344
53.218314
52.083066
50.986645
49.94195
48.934977
47.971075
47.041767
46.151541
45.289342
44.466689
43.663196
42.90215
42.151043
41.445644
40.742018
40.086368
39.426427
38.814662
38.196172
37.621842
37.044847
36.500223
35.966229
35.44432
34.952347
34.451467
33.994873
33.519026
33.089155
32.64063
32.235766
31.807191
31.435113
31.014514
30.68049
30.265727
29.962637
29.561672
29.279405
28.897233
28.630977
28.270321
28.012376
27.683875
27.41685
27.138331
26.845466
26.62348
26.309384
26.125321
25.813305
25.644892
25.345401
25.189052
24.897179
24.749836
24.462796
24.317785
24.029002
23.884225
23.504639
367.88973
320.04486
283.07995
253.69444
229.78961
209.97354
193.28414
179.04041
166.74223
156.01934
146.58708
138.2273
130.76682
124.06857
118.02171
112.5357
107.53615
102.96177
98.759116
94.887929
91.305176
87.988123
84.896884
82.02424
79.329641
76.818292
74.449286
72.234668
70.137285
68.168402
66.300703
64.537072
62.865377
61.274982
59.771202
58.328969
56.968894
55.6554
54.417953
53.218088
52.085268
50.98675
49.943864
48.935939
47.971484
47.044333
46.149429
45.294131
44.461705
43.670405
42.89429
42.160524
41.434751
40.753635
40.072459
39.439728
38.798792
38.209367
37.606364
37.055048
36.487711
35.971632
35.435612
34.953564
34.445802
33.992216
33.51761
33.079263
32.647741
32.214316
31.824767
31.403918
31.036544
30.648319
30.282955
29.935668
29.572326
29.254248
28.906154
28.604029
28.277024
27.986445
27.684416
27.395188
27.128339
26.832986
26.600234
26.301546
26.100415
25.79777
25.622048
25.323607
25.16184
24.864928
24.714698
24.416802
24.266934
23.966454
23.794262
23.445777
367.88975
320.04479
283.07994
253.69426
229.78955
209.97317
193.28399
179.03981
166.74196
156.0185
146.58662
138.22621
130.76611
124.0672
118.02077
112.5339
107.53518
102.95922
98.75848
94.884166
91.305296
87.982802
84.897994
82.017377
79.331572
76.810446
74.451435
72.226898
70.138814
68.161988
66.300881
64.533127
62.863918
61.274017
59.768513
58.330498
56.966111
55.658
54.416514
53.220067
52.086007
50.987177
49.946308
48.935113
47.974338
47.043158
46.151948
45.292788
44.464522
43.667557
42.898804
42.154309
41.441805
40.743506
40.081581
39.426901
38.808461
38.195676
37.614826
37.042051
36.49344
35.960759
35.437121
34.94647
34.441472
33.99048
33.506366
33.08253
32.631905
32.217141
31.811931
31.397615
31.033335
30.631211
30.284754
29.917734
29.567472
29.24431
28.892417
28.596181
28.265651
27.969718
27.68023
27.373781
27.12028
26.820189
26.577601
26.300656
26.067778
25.794818
25.59205
25.306698
25.131518
24.830097
24.673132
24.358825
24.200546
23.881964
23.705324
23.350751
367.88963
320.04492
283.07971
253.69437
229.78918
209.97319
193.28345
179.03966
166.74122
156.01813
146.58568
138.22556
130.76496
124.06619
118.01944
112.53245
107.53366
102.95726
98.756784
94.88166
91.303398
87.979773
84.895835
82.01395
79.329058
76.806861
74.448513
72.223452
70.135613
68.158929
66.297823
64.53061
62.861583
61.27225
59.767162
58.330012
56.965317
55.659565
54.415297
53.223952
52.083838
50.992376
49.944108
48.939552
47.973955
47.044909
46.154267
45.291362
44.468348
43.664284
42.90205
42.150945
41.443385
40.740448
40.082163
39.423056
38.81002
38.18926
37.619627
37.030979
36.502996
35.943936
35.450835
34.92615
34.455237
33.972623
33.513706
33.073388
32.627625
32.219598
31.795339
31.408756
31.01036
30.642666
30.263967
29.923421
29.55078
29.246467
28.875095
28.600882
28.240128
27.986157
27.637622
27.403997
27.070235
26.842241
26.542403
26.301904
26.041138
25.788135
25.557509
25.292044
25.088922
24.796218
24.621655
24.305355
24.137591
23.818471
23.6817
23.251185
367.88969
320.0448
283.07974
253.69416
229.78909
209.97288
193.28316
179.03922
166.74068
156.01749
146.58489
138.22462
130.76395
124.06485
118.0182
112.53066
107.53214
102.955
98.754883
94.878962
91.30103
87.976647
84.892955
82.010407
79.325719
76.802903
74.444935
72.219081
70.132212
68.154259
66.295109
64.526035
62.859934
61.268506
59.766614
58.328007
56.965354
55.659943
54.414983
53.22677
52.08257
50.997056
49.942152
48.944866
47.971938
47.049446
46.152174
45.294535
44.465477
43.666761
42.897804
42.153554
41.437988
40.742804
40.076832
39.423857
38.805917
38.187845
37.61656
37.028158
36.499493
35.941134
35.445169
34.924924
34.445326
33.975414
33.497183
33.08179
32.605333
32.22946
31.775058
31.409597
31.003478
30.623275
30.279926
29.877454
29.590535
29.180082
28.926208
28.528212
28.291953
27.911021
27.690133
27.327783
27.11464
26.778065
26.564356
26.254623
26.038772
25.749223
25.530455
25.25308
25.033633
24.7475
24.548283
24.236685
24.062695
23.746642
23.570702
23.224393
367.88972
320.0447
283.07975
253.69393
229.78908
209.97243
193.28313
179.03843
166.74065
156.01623
146.58487
138.2228
130.76391
124.06246
118.01803
112.52774
107.53169
102.95163
98.753958
94.875203
91.299495
87.972509
84.890731
82.005916
79.322728
76.798249
74.441027
72.214742
70.127247
68.150942
66.289225
64.524423
62.853798
61.268931
59.761377
58.330099
56.962219
55.662662
54.414675
53.229112
52.084847
50.998611
49.945378
48.945651
47.974143
47.049734
46.152669
45.294457
44.465153
43.665888
42.898091
42.151032
41.440013
40.737752
40.080846
39.415963
38.811255
38.17829
37.621482
37.019691
36.500796
35.93692
35.439912
34.925729
34.435111
33.976508
33.489467
33.075154
32.60678
32.21316
31.780824
31.395235
30.997668
30.62518
30.255745
29.890611
29.563297
29.18477
28.909752
28.522169
28.277844
27.90325
27.675194
27.314066
27.102493
26.755948
26.55239
26.222211
26.019959
25.706079
25.490704
25.200134
24.955053
24.683989
24.44427
24.145374
23.953264
23.648162
23.520276
23.100236
367.88962
320.0448
283.07954
253.69403
229.78866
209.9725
193.28242
179.03843
166.73959
156.01614
146.5834
138.22257
130.76195
124.0621
118.01547
112.52728
107.52833
102.95112
98.749635
94.87462
91.294157
87.971644
84.884552
82.004374
79.31608
76.795615
74.434351
72.210864
70.120939
68.146176
66.28366
64.519674
62.849445
61.265406
59.75865
58.328826
56.961157
55.66409
54.414883
53.232849
52.085291
51.003287
49.944846
48.949842
47.972306
47.052753
46.150534
45.296255
44.463712
43.666714
42.896883
42.152101
41.436539
40.741804
40.071637
39.426124
38.794394
38.194569
37.59987
37.036012
36.483227
35.943183
35.435494
34.915772
34.445446
33.952794
33.509094
33.044076
32.630062
32.178975
31.80494
31.360951
31.016666
30.602576
30.250062
29.903259
29.512794
29.238753
28.827555
28.588941
28.195176
27.959657
27.605887
27.345095
27.063645
26.747388
26.529689
26.204211
25.970573
25.680396
25.435061
25.124422
24.902951
24.594118
24.365487
24.08142
23.881797
23.614114
23.491829
23.117182
367.88968
320.04467
283.07962
253.69376
229.78871
209.97202
193.28241
179.03768
166.73944
156.01511
146.58299
138.22127
130.76119
124.06053
118.01422
112.52545
107.52644
102.94904
98.746941
94.87226
91.290527
87.968866
84.880009
82.000834
79.31091
76.790807
74.429079
72.204395
70.116162
68.138209
66.279965
64.5112
62.847447
61.25798
59.759095
58.323812
56.9646
55.661482
54.420605
53.231186
52.09159
51.001515
49.950407
48.94882
47.976747
47.053472