/*--------------------------------*- C++ -*----------------------------------*\
| =========                 |                                                 |
| \\      /  F ield         | OpenFOAM: The Open Source CFD Toolbox           |
|  \\    /   O peration     | Version:  2406                                  |
|   \\  /    A nd           | Website:  www.openfoam.com                      |
|    \\/     M anipulation  |                                                 |
\*---------------------------------------------------------------------------*/
FoamFile
{
    version     2.0;
    format      ascii;
    arch        "LSB;label=32;scalar=64";
    class       volScalarField;
    location    "400";
    object      p;
}
// * * * * * * * * * * * * * * * * * * * * * * * * * * * * * * * * * * * * * //

dimensions      [0 2 -2 0 0 0 0];

internalField   nonuniform List<scalar> 
16045
(
1.0534195
1.0500174
1.0440408
1.035011
1.0229547
1.0083227
0.9912207
0.97146542
0.94874014
0.92265571
0.89293918
0.85967407
0.82321661
0.78390272
0.74180625
0.69679694
0.64871419
0.59751316
0.54323254
0.4859595
0.42584221
0.36322019
0.29863394
0.23273905
0.16609114
0.099122743
0.032196375
-0.034248042
-0.099829
-0.16434733
-0.22776143
-0.28973773
-0.34935784
-0.40515165
-0.45602802
-0.50233952
-0.54585118
-0.5876568
-0.62649423
-0.65973635
-0.68643522
-0.7081408
-0.72668366
-0.74184394
-0.75262266
-0.76004746
-0.7675252
-0.77702098
-0.7857989
-0.78767325
-0.77895203
-0.76289543
-0.74847521
-0.743481
-0.74835956
-0.75552576
-0.75536992
-0.74325057
-0.72286658
-0.70308444
-0.69186885
-0.69108178
-0.69613537
-0.69936029
-0.69527474
-0.68338172
-0.66817082
-0.65577795
-0.65063793
-0.65298278
-0.65937669
-0.66463824
-0.66488422
-0.65881
-0.64820888
-0.63667231
-0.62823165
-0.62479243
-0.62547551
-0.62735115
-0.62764636
-0.62451585
-0.61804537
-0.60949116
-0.60077447
-0.59251632
-0.58363313
-0.57237309
-0.55860734
-0.54231339
-0.52266418
-0.49723663
-0.46554552
-0.42499951
-0.37568408
-0.30594893
-0.23185555
-0.10014195
-0.06227072
0.21543084
1.0567429
1.0546165
1.0496092
1.0411537
1.0297031
1.0157122
0.99919982
0.97997116
0.95775565
0.9321655
0.90293548
0.87013018
0.83411411
0.79520286
0.75347796
0.70878644
0.66097722
0.6099812
0.55584573
0.49862498
0.43847818
0.37571339
0.31089732
0.24465349
0.17756356
0.11001874
0.042420695
-0.024817043
-0.091259598
-0.15673352
-0.22114817
-0.28422301
-0.3449389
-0.40178854
-0.45362892
-0.50096224
-0.54546755
-0.58811041
-0.62747423
-0.66121173
-0.68851165
-0.7108502
-0.72955502
-0.74431881
-0.75442711
-0.76156916
-0.7692005
-0.77895001
-0.78733064
-0.78807628
-0.77781005
-0.76057932
-0.74560144
-0.74058077
-0.74525519
-0.75175344
-0.75027843
-0.73668777
-0.71495813
-0.69432354
-0.68249683
-0.68123268
-0.68553403
-0.68787616
-0.6827136
-0.66989936
-0.65380201
-0.64068924
-0.63466491
-0.6360776
-0.64126777
-0.6453262
-0.64421196
-0.63694881
-0.62517677
-0.61269737
-0.60315696
-0.59853574
-0.59760827
-0.59773649
-0.59594449
-0.59073271
-0.58195259
-0.57099378
-0.55928334
-0.54793232
-0.53585128
-0.52152361
-0.50415205
-0.48382409
-0.45970779
-0.42996962
-0.3941468
-0.35053468
-0.29994512
-0.23171476
-0.16574261
-0.057033774
-0.068282275
0.17534766
1.0627125
1.0608747
1.0559236
1.0474688
1.0361613
1.0223562
1.0059454
0.98676663
0.96459757
0.93907257
0.90990308
0.87714933
0.84115386
0.80223349
0.76044832
0.71565084
0.66767211
0.61645172
0.5620103
0.50440548
0.44377
0.38043655
0.31495704
0.24797774
0.18004534
0.11157899
0.042974324
-0.025302304
-0.092832723
-0.15940037
-0.22496371
-0.28918613
-0.35093962
-0.40856064
-0.4611204
-0.50930931
-0.55464207
-0.59755356
-0.63672858
-0.67046271
-0.6983801
-0.72121553
-0.73932313
-0.75233952
-0.76092659
-0.76797148
-0.7767997
-0.78734771
-0.79475514
-0.79279033
-0.77978897
-0.7614294
-0.74740755
-0.7441606
-0.74984034
-0.75554978
-0.75200096
-0.73618013
-0.71328368
-0.69271079
-0.68173981
-0.68114754
-0.68557518
-0.68747225
-0.68189656
-0.66898131
-0.65327041
-0.64054742
-0.63463323
-0.63554545
-0.63997205
-0.64318495
-0.64158865
-0.63423668
-0.62305582
-0.61152817
-0.60296579
-0.59873035
-0.59777808
-0.5974872
-0.59528429
-0.58968582
-0.58084513
-0.56985963
-0.55810849
-0.54671953
-0.53547538
-0.5227182
-0.50706497
-0.48797511
-0.46512883
-0.43738993
-0.404532
-0.36595439
-0.3220594
-0.26262138
-0.20696778
-0.1058654
-0.10263522
0.17151394
1.0709529
1.0692127
1.0645918
1.0565738
1.045736
1.0323803
1.0163696
0.99756342
0.97577999
0.95065864
0.92189684
0.88953172
0.85389197
0.81527661
0.77373712
0.72911421
0.68123479
0.63002177
0.57548086
0.51764819
0.45665707
0.39284185
0.32676271
0.25904137
0.19020843
0.12068639
0.050925675
-0.018582228
-0.087423921
-0.15544288
-0.22258457
-0.28833697
-0.35131194
-0.40993403
-0.46366993
-0.51330734
-0.55975842
-0.60296926
-0.64207852
-0.6763515
-0.70538266
-0.72861556
-0.74535428
-0.75607087
-0.76348259
-0.77157718
-0.78235377
-0.79319495
-0.79787455
-0.79144306
-0.77501037
-0.75625248
-0.74439782
-0.74356631
-0.74955709
-0.75288163
-0.74551019
-0.72646958
-0.70217173
-0.68187775
-0.67162904
-0.67106605
-0.67444224
-0.67480577
-0.66805952
-0.65486191
-0.63945668
-0.62687272
-0.62014735
-0.61919629
-0.62112768
-0.62200979
-0.61876949
-0.61077245
-0.59980417
-0.58888979
-0.58050253
-0.57554761
-0.57297433
-0.57056562
-0.56604483
-0.55822844
-0.54714656
-0.53383967
-0.5195784
-0.50567358
-0.49237897
-0.47826223
-0.46123278
-0.44008604
-0.4142271
-0.38291155
-0.34660989
-0.30533133
-0.26053622
-0.20147447
-0.1471848
-0.047273542
-0.057161447
0.19018791
1.0813395
1.0797084
1.075296
1.0674781
1.0568265
1.043672
1.027862
1.0092452
0.98764905
0.96271967
0.93413949
0.90192796
0.8663925
0.82781871
0.78624355
0.74150077
0.69340165
0.64185255
0.58683432
0.52837527
0.46660913
0.40188226
0.33473823
0.26577223
0.19549363
0.12436726
0.052902071
-0.018374433
-0.089109293
-0.15921005
-0.2285084
-0.29614817
-0.36061434
-0.42066125
-0.47609592
-0.52739517
-0.57485535
-0.61839456
-0.65790515
-0.69307183
-0.72274313
-0.74515523
-0.75967155
-0.76844676
-0.77593038
-0.7858151
-0.79778047
-0.80696109
-0.80722849
-0.79609851
-0.77752835
-0.75999983
-0.75102675
-0.75191429
-0.75680548
-0.75671996
-0.74571382
-0.72470658
-0.70060196
-0.68157931
-0.67215562
-0.67106023
-0.67289822
-0.67182144
-0.66481633
-0.65273292
-0.63908115
-0.62768458
-0.62077906
-0.61820735
-0.61786426
-0.61683148
-0.61286973
-0.60548081
-0.59607494
-0.58691887
-0.57982998
-0.57529347
-0.57235937
-0.56912832
-0.56378761
-0.55532424
-0.54377588
-0.53010598
-0.51579232
-0.50208472
-0.48945263
-0.47685449
-0.46224561
-0.44374481
-0.4198775
-0.39005667
-0.35584573
-0.31803176
-0.27873614
-0.22783906
-0.18315856
-0.095105983
-0.10551461
0.1510489
1.0937857
1.0921874
1.0879246
1.0803439
1.0700014
1.0572092
1.0417794
1.0235359
1.0023091
0.97774993
0.9495336
0.91766037
0.88241843
0.84407448
0.80265126
0.7579655
0.70980881
0.65806172
0.60268609
0.54370133
0.48124565
0.41565728
0.34745288
0.27719471
0.20540051
0.13257771
0.059286793
-0.013944663
-0.086822906
-0.1592494
-0.23081985
-0.30042987
-0.36665208
-0.4285203
-0.48576171
-0.53844492
-0.58677274
-0.63113598
-0.67171076
-0.70757394
-0.7365672
-0.7568872
-0.76929218
-0.77759017
-0.78632708
-0.79733273
-0.8080357
-0.81310592
-0.80833717
-0.79406447
-0.77560173
-0.76027083
-0.75287868
-0.75266228
-0.75381447
-0.74934894
-0.73560569
-0.71444059
-0.69180149
-0.67394371
-0.66391261
-0.66038413
-0.6591359
-0.6558799
-0.64848811
-0.63758471
-0.62554843
-0.61495345
-0.60731119
-0.60257362
-0.5993934
-0.59589036
-0.59052343
-0.58288811
-0.5739135
-0.56529301
-0.55838312
-0.55341792
-0.54939807
-0.54464085
-0.53759547
-0.52743859
-0.51425985
-0.49906901
-0.48328213
-0.4679856
-0.45358343
-0.43964329
-0.42455719
-0.40599505
-0.38149726
-0.35034212
-0.31478513
-0.27583913
-0.23574696
-0.18478285
-0.1411141
-0.05433244
-0.06955743
0.17741815
1.1082002
1.1066803
1.1025199
1.0951886
1.0851556
1.0726649
1.0575176
1.0395449
1.0185852
0.99429408
0.96633758
0.93469679
0.89963663
0.86140223
0.81999382
0.7752045
0.7267996
0.67463634
0.6186592
0.5588798
0.49542678
0.42861832
0.35894004
0.28693809
0.21314109
0.13809195
0.06238368
-0.013457166
-0.089138985
-0.16444289
-0.23877819
-0.31101805
-0.37984869
-0.44418778
-0.50341783
-0.5575735
-0.60735978
-0.65348645
-0.69549758
-0.73132225
-0.758576
-0.77679742
-0.78853019
-0.79792907
-0.8078499
-0.81782932
-0.82457479
-0.82443603
-0.81606155
-0.80149889
-0.78525006
-0.77192988
-0.76382903
-0.75971126
-0.75563207
-0.74735702
-0.73295248
-0.71385964
-0.69393822
-0.67722053
-0.66582974
-0.6591895
-0.6547894
-0.64982146
-0.64266148
-0.63336096
-0.62322088
-0.61385784
-0.60634136
-0.60071167
-0.59609451
-0.59121012
-0.58502947
-0.57728387
-0.56869727
-0.56063776
-0.55423964
-0.54961057
-0.54574661
-0.54102947
-0.53397223
-0.52375944
-0.51054017
-0.49531263
-0.47948302
-0.46413979
-0.44975894
-0.43619706
-0.4222396
-0.40540441
-0.38299557
-0.35431344
-0.32145957
-0.28525828
-0.24783269
-0.20028536
-0.16078693
-0.081137566
-0.097982338
0.14850308
1.1245413
1.1230316
1.1189986
1.1119246
1.1022025
1.0900299
1.0752114
1.0575898
1.0370067
1.0131118
0.98555548
0.95429409
0.91956547
0.88158665
0.84033
0.79556083
0.74701883
0.69453657
0.63803779
0.57751616
0.51308072
0.44502287
0.37380264
0.29995091
0.22400369
0.1465348
0.068165944
-0.010567365
-0.089308471
-0.16770003
-0.24508857
-0.32039583
-0.39219671
-0.4590595
-0.52022539
-0.57613602
-0.62792349
-0.67588834
-0.71844899
-0.75299194
-0.77812531
-0.79519689
-0.80751386
-0.81793656
-0.82701865
-0.83314304
-0.83420558
-0.82928845
-0.81918361
-0.8058704
-0.79165404
-0.77842856
-0.76715329
-0.75751089
-0.74801035
-0.73676361
-0.72257451
-0.70569499
-0.68778646
-0.67114637
-0.65761761
-0.64769911
-0.64036359
-0.63374046
-0.62622831
-0.61734136
-0.6077827
-0.59880461
-0.59132581
-0.58532931
-0.5799225
-0.5739084
-0.56647274
-0.55757894
-0.54800325
-0.539066
-0.53187
-0.52660756
-0.52239971
-0.51764795
-0.51066726
-0.50036353
-0.4866613
-0.47049751
-0.45343643
-0.43687552
-0.42147544
-0.40705819
-0.39234582
-0.37488191
-0.35238756
-0.32436328
-0.29242739
-0.25690247
-0.21991265
-0.17251828
-0.13291253
-0.053911487
-0.074287332
0.16369498
1.1427157
1.1412737
1.1373782
1.1305379
1.1211333
1.1093112
1.0948569
1.0776148
1.0574276
1.0339371
1.006777
0.97588019
0.94145591
0.90369115
0.86252876
0.81770707
0.76893864
0.7160261
0.65886075
0.59740592
0.53174465
0.46214641
0.38904883
0.31296307
0.23442401
0.1540277
0.072417319
-0.0098325993
-0.092270365
-0.17444442
-0.25566924
-0.33476646
-0.41004297
-0.47988785
-0.54376331
-0.60245452
-0.65686043
-0.70636199
-0.74870404
-0.78183426
-0.80589278
-0.82323689
-0.83648292
-0.84658554
-0.8527455
-0.85388173
-0.84999241
-0.84217439
-0.83168
-0.81922999
-0.80518811
-0.79014981
-0.77513354
-0.76105718
-0.74803465
-0.73519893
-0.72127232
-0.70547262
-0.68819481
-0.67102398
-0.65599883
-0.64439067
-0.63583729
-0.62857615
-0.6206923
-0.61143925
-0.60159167
-0.59267055
-0.58572841
-0.58058081
-0.57594139
-0.57023642
-0.56251713
-0.55286721
-0.54231585
-0.53237439
-0.52436178
-0.51871518
-0.51476065
-0.51088942
-0.50512705
-0.49593089
-0.48280869
-0.46655642
-0.44895703
-0.4318824
-0.41634739
-0.40219264
-0.38791282
-0.37100512
-0.34955906
-0.32331772
-0.29380176
-0.26120311
-0.22742485
-0.18317137
-0.14565533
-0.069685284
-0.089761977
0.14602111
1.162684
1.1612632
1.1575173
1.1509438
1.1418867
1.130447
1.116394
1.0995792
1.0798489
1.0568376
1.0301618
0.99972864
0.96571629
0.92827899
0.88732842
0.84257204
0.79368798
0.74043767
0.68266878
0.62030636
0.55340849
0.48222484
0.40716137
0.32869149
0.24733938
0.16372411
0.078532603
-0.0075970588
-0.09415194
-0.18063927
-0.26625368
-0.34953479
-0.42854398
-0.50176821
-0.5689787
-0.63089756
-0.68772098
-0.73808994
-0.77986508
-0.81204853
-0.83576701
-0.85321242
-0.86575496
-0.87325969
-0.87513715
-0.87173945
-0.86449662
-0.85478835
-0.84298286
-0.82868948
-0.81186153
-0.79353067
-0.77543658
-0.75894982
-0.74418746
-0.72999507
-0.71477199
-0.69755088
-0.67876353
-0.66024037
-0.64433127
-0.63243158
-0.62390805
-0.61642223
-0.60758346
-0.59668336
-0.58506715
-0.57499171
-0.56790293
-0.5634661
-0.55984063
-0.55482271
-0.54706991
-0.53663365
-0.52478586
-0.51333551
-0.50390776
-0.49728389
-0.49300575
-0.48946387
-0.48441065
-0.47585878
-0.46291331
-0.44620207
-0.42764526
-0.40950231
-0.3931015
-0.37839966
-0.36384509
-0.34688054
-0.32564987
-0.29989967
-0.27108241
-0.23970005
-0.20788932
-0.16600436
-0.13005973
-0.054925628
-0.075778684
0.15425657
1.1843567
1.1830338
1.1794019
1.1731261
1.1644645
1.1534418
1.1398275
1.123493
1.1042868
1.0818301
1.0557166
1.0258237
0.99229573
0.95525272
0.91457145
0.86992144
0.82093644
0.7673294
0.70890056
0.64553632
0.57726508
0.50430234
0.42700413
0.34579893
0.26120089
0.17385907
0.084518489
-0.0061281647
-0.097547875
-0.1891898
-0.28002146
-0.36825124
-0.45179329
-0.52927589
-0.60055583
-0.66600796
-0.72523809
-0.77668016
-0.81867274
-0.85088429
-0.87449323
-0.89098755
-0.90104591
-0.90474294
-0.90264037
-0.8962147
-0.88697578
-0.87531517
-0.86052478
-0.8421139
-0.82104659
-0.79958811
-0.77995377
-0.76293005
-0.74753965
-0.73183094
-0.71413528
-0.69409943
-0.67300754
-0.65334347
-0.63759934
-0.62674299
-0.61935173
-0.61227546
-0.60273177
-0.5902009
-0.57673499
-0.56537
-0.55800429
-0.55423545
-0.55175262
-0.547826
-0.54071744
-0.53036736
-0.5181002
-0.50590449
-0.49565478
-0.4884596
-0.48414719
-0.48112939
-0.47694797
-0.46924578
-0.45689575
-0.44047308
-0.4219811
-0.40381326
-0.38740084
-0.37271616
-0.35832169
-0.34191258
-0.32165892
-0.29703097
-0.26911435
-0.23871501
-0.20853663
-0.16964479
-0.13695408
-0.065241054
-0.085009844
0.14332634
1.2076922
1.2063886
1.2029312
1.1969992
1.1887653
1.1781999
1.165079
1.1492928
1.1306916
1.1088821
1.0834335
1.054192
1.021268
0.98474452
0.94445932
0.90003742
0.85106188
0.79719151
0.73817591
0.67385773
0.60422046
0.52942194
0.44975845
0.36561895
0.27750315
0.18607101
0.092109742
-0.0036366976
-0.10057793
-0.19802635
-0.29469926
-0.38857008
-0.47746466
-0.55997669
-0.63576271
-0.70481497
-0.76646528
-0.81926361
-0.86191611
-0.89422335
-0.91699031
-0.93118721
-0.93753239
-0.93695727
-0.93110147
-0.92181087
-0.90992346
-0.89477687
-0.87527295
-0.85165787
-0.82621515
-0.80207966
-0.78127951
-0.76356986
-0.74686579
-0.72871417
-0.70774869
-0.68446662
-0.66103207
-0.64040138
-0.62490121
-0.61484062
-0.60803885
-0.60085381
-0.59045576
-0.57661701
-0.56181541
-0.54943749
-0.54151905
-0.53761332
-0.53525201
-0.53156807
-0.52471226
-0.51448661
-0.50206097
-0.48932258
-0.47823214
-0.47015232
-0.46523826
-0.46202967
-0.45794034
-0.45043645
-0.4383098
-0.42220929
-0.4041316
-0.38638639
-0.37031767
-0.35578635
-0.34136538
-0.32504649
-0.30527075
-0.28152218
-0.25452287
-0.2244835
-0.19425317
-0.15637536
-0.12601306
-0.057497821
-0.078580681
0.14579482
1.2325727
1.2313686
1.2281147
1.2225165
1.214736
1.2046922
1.1921456
1.1769955
1.1590959
1.1380405
1.1133741
1.0849114
1.0527256
1.0168596
0.97710666
0.93304271
0.88419496
0.83016097
0.77062893
0.70538356
0.6343453
0.55759968
0.47537837
0.38802715
0.29601471
0.19998687
0.10074999
-0.00088744061
-0.10420314
-0.20830392
-0.31169691
-0.41221903
-0.50758609
-0.59616842
-0.67725799
-0.75049639
-0.81506332
-0.86959583
-0.91296953
-0.94500425
-0.96633128
-0.97781628
-0.9804585
-0.97581399
-0.9660178
-0.95285734
-0.93671469
-0.91666359
-0.89199971
-0.86382854
-0.83506515
-0.80880178
-0.78640352
-0.76689323
-0.74783712
-0.72689669
-0.70320424
-0.67778365
-0.65317529
-0.63229556
-0.6170091
-0.60702716
-0.59976015
-0.59171556
-0.58048463
-0.56626915
-0.55158974
-0.53954278
-0.5318423
-0.52787058
-0.52536111
-0.52170724
-0.51527324
-0.50573326
-0.4939175
-0.48138439
-0.4699483
-0.46112718
-0.45532132
-0.45134064
-0.44668472
-0.43888626
-0.42682026
-0.4111903
-0.39395688
-0.37720578
-0.36212486
-0.34847333
-0.33476459
-0.31907408
-0.30011372
-0.27785735
-0.25307997
-0.22495403
-0.1953742
-0.15783464
-0.1285582
-0.06343698
-0.084951396
0.13679178
1.2589436
1.2577864
1.2547633
1.2495558
1.2422881
1.2328343
1.2209415
1.2065206
1.18943
1.1692513
1.1455046
1.1179718
1.0866873
1.0516512
1.0126099
0.96908597
0.92054508
0.8665137
0.80660483
0.74052842
0.66812936
0.58941352
0.5045333
0.41376451
0.31752879
0.21645362
0.11135271
0.0030918901
-0.10745451
-0.21916261
-0.33031059
-0.43854992
-0.54140151
-0.63696101
-0.72417108
-0.80233172
-0.87037212
-0.92680955
-0.97054881
-1.0015613
-1.0206885
-1.0290404
-1.0278635
-1.018872
-1.0041811
-0.98545832
-0.96319047
-0.93701937
-0.90705594
-0.87490355
-0.84324988
-0.81444715
-0.78921255
-0.76644327
-0.74404037
-0.72013642
-0.69422977
-0.66752276
-0.64251776
-0.62176755
-0.60649792
-0.59580912
-0.58696815
-0.57701058
-0.56437182
-0.549798
-0.53568355
-0.52441557
-0.51701438
-0.51266875
-0.50951392
-0.50560843
-0.4996824
-0.49133877
-0.48090918
-0.46942254
-0.45831514
-0.44897816
-0.4419558
-0.43636034
-0.43011833
-0.42107835
-0.40834144
-0.39260162
-0.37565195
-0.35934519
-0.34465475
-0.33128854
-0.31782846
-0.30257428
-0.28432316
-0.2632867
-0.24068697
-0.2155804
-0.18845385
-0.15181838
-0.12244245
-0.058728725
-0.081632047
0.13555097
1.2866814
1.2856679
1.2828421
1.2780773
1.2714002
1.2626022
1.2514372
1.2378437
1.2216843
1.2025257
1.1798611
1.1534379
1.1232506
1.0892543
1.0511447
1.0083852
0.96037138
0.90654941
0.84644483
0.77967725
0.70599969
0.6253234
0.53769715
0.44329488
0.34247117
0.23583293
0.12419998
0.0084823573
-0.11032092
-0.23086498
-0.35113108
-0.46843899
-0.57999832
-0.68362841
-0.77797761
-0.86199478
-0.93425271
-0.9930115
-1.0370943
-1.0666169
-1.0828075
-1.0872694
-1.0816125
-1.067598
-1.0471115
-1.0217186
-0.99229346
-0.95936962
-0.9239471
-0.88779398
-0.85301394
-0.82111183
-0.79243291
-0.76609026
-0.74035952
-0.71369846
-0.68569592
-0.65773954
-0.6323991
-0.61201664
-0.59727746
-0.58653434
-0.57687409
-0.56564846
-0.55207581
-0.53736644
-0.52367908
-0.5127314
-0.50480976
-0.49912584
-0.49440995
-0.48962
-0.48404887
-0.47724048
-0.46908435
-0.4599016
-0.4506007
-0.44219851
-0.43518652
-0.42894296
-0.42184981
-0.41224726
-0.3994262
-0.3840021
-0.36738918
-0.35112781
-0.33604242
-0.32188202
-0.30748536
-0.29161191
-0.27342697
-0.2529732
-0.23163367
-0.20933183
-0.18603741
-0.15243379
-0.12375116
-0.06080243
-0.082997008
0.12989128
1.3157183
1.314757
1.3122092
1.3079567
1.3019258
1.2938531
1.2835087
1.2708578
1.255768
1.2377908
1.2163922
1.1912844
1.1624211
1.129711
1.092796
1.0510747
1.0038647
0.95052221
0.8904744
0.82323436
0.74844217
0.66588944
0.57549625
0.47730648
0.37157562
0.25886429
0.13999394
0.015919908
-0.11224653
-0.24294379
-0.37381283
-0.50175473
-0.62356785
-0.73668143
-0.83931661
-0.92999232
-1.0069836
-1.0684099
-1.1129857
-1.1407601
-1.1531725
-1.1524136
-1.1407759
-1.1203654
-1.0929841
-1.0600832
-1.0228451
-0.9825737
-0.94094612
-0.89979593
-0.86075513
-0.82489755
-0.79260893
-0.76322827
-0.735012
-0.70607247
-0.67569297
-0.64542179
-0.61832039
-0.59709711
-0.58233536
-0.57192986
-0.56259502
-0.55175655
-0.53888968
-0.52532134
-0.51275822
-0.50213442
-0.49317896
-0.48511041
-0.47745656
-0.47013626
-0.46322971
-0.45645438
-0.4493561
-0.44172251
-0.4338852
-0.42658644
-0.42021206
-0.41436607
-0.40781673
-0.3992824
-0.38816894
-0.37475752
-0.35987994
-0.34447592
-0.32916879
-0.3138111
-0.29751308
-0.2795884
-0.25998424
-0.23903323
-0.2177035
-0.1962087
-0.17549773
-0.14587643
-0.11980589
-0.057847583
-0.079329527
0.12934561
1.3458921
1.3450804
1.3428494
1.3391083
1.3337699
1.3265189
1.3171158
1.3055429
1.291677
1.2750585
1.2551286
1.2315658
1.2042831
1.1731425
1.1377299
1.0973748
1.0513087
0.99878734
0.93912552
0.87171248
0.79605033
0.71178016
0.61866345
0.51658668
0.40566463
0.28636102
0.15946801
0.025991538
-0.11281548
-0.25514259
-0.39828523
-0.538737
-0.67281344
-0.79732044
-0.90975363
-1.0080422
-1.0902549
-1.1545868
-1.1997455
-1.2255947
-1.233524
-1.2261959
-1.2067766
-1.17812
-1.1424033
-1.1011513
-1.0557319
-1.0078051
-0.95922035
-0.91175712
-0.86684963
-0.82586934
-0.78980172
-0.75828677
-0.72930295
-0.69985374
-0.66837788
-0.63601428
-0.60612797
-0.58214119
-0.56499825
-0.55299108
-0.54294582
-0.5325923
-0.52163255
-0.51110636
-0.50208411
-0.49439024
-0.48698384
-0.47885371
-0.46986583
-0.46072213
-0.45204439
-0.4438532
-0.43550427
-0.42650142
-0.41704799
-0.40796187
-0.40006737
-0.39341793
-0.3873352
-0.38082258
-0.37316814
-0.36404746
-0.35338958
-0.34129752
-0.32784729
-0.31278638
-0.29541903
-0.27555203
-0.25394064
-0.2317032
-0.20967549
-0.18752278
-0.16702748
-0.14002804
-0.1173954
-0.058041144
-0.078210097
0.1270118
1.3771127
1.3763905
1.3745129
1.3713585
1.3667963
1.3604655
1.3521195
1.3417624
1.3292837
1.3142164
1.2959792
1.274218
1.2488067
1.2195609
1.1860096
1.1474093
1.1028988
1.0516214
0.99276394
0.92557319
0.84938984
0.76367014
0.66797643
0.56199824
0.44566757
0.31929443
0.18358164
0.039554575
-0.1113646
-0.26704897
-0.42440354
-0.57951319
-0.72816479
-0.86635693
-0.99056788
-1.0978729
-1.1859996
-1.2532704
-1.2986199
-1.3219385
-1.3245605
-1.3093959
-1.2802981
-1.2410867
-1.1948256
-1.1436528
-1.0893445
-1.0336049
-0.97794421
-0.92355508
-0.87154729
-0.82380857
-0.78232044
-0.74762288
-0.71784053
-0.68929302
-0.65926491
-0.62775345
-0.59735084
-0.57125951
-0.55073285
-0.53461793
-0.5207262
-0.50766906
-0.49588692
-0.48658697
-0.48031812
-0.4762102
-0.47238901
-0.46749607
-0.46126639
-0.45443178
-0.44761199
-0.44047673
-0.43199809
-0.42119916
-0.40823281
-0.39433483
-0.38120345
-0.37006077
-0.36122367
-0.35440775
-0.34894083
-0.3439983
-0.33855578
-0.33163987
-0.32237317
-0.30992869
-0.2935251
-0.2732379
-0.25036479
-0.22673694
-0.20371081
-0.18070795
-0.15892627
-0.13159274
-0.11070768
-0.054815868
-0.075949472
0.12627817
1.4092076
1.4086874
1.4071267
1.4046258
1.400942
1.3956226
1.388438
1.3794352
1.3685196
1.3552161
1.3389215
1.3192513
1.2960417
1.2690627
1.2377858
1.2013928
1.1589253
1.1094042
1.0518724
0.98541352
0.90918078
0.82241025
0.72441541
0.61463099
0.49275039
0.35887238
0.21354265
0.057746362
-0.1069474
-0.27806202
-0.45202944
-0.6244045
-0.79031404
-0.94482315
-1.0832371
-1.2015251
-1.2967187
-1.3670328
-1.411777
-1.431329
-1.4273871
-1.4030442
-1.3624613
-1.3102436
-1.2505461
-1.18685
-1.1219669
-1.057957
-0.99595446
-0.93585469
-0.87779564
-0.82316052
-0.774355
-0.73321868
-0.69889314
-0.66873478
-0.63995895
-0.61168847
-0.5852949
-0.56245272
-0.54360891
-0.5272183
-0.51122836
-0.49488405
-0.479103
-0.46566165
-0.45550875
-0.44822406
-0.44269463
-0.43811083
-0.43471129
-0.43304532
-0.43301352
-0.43308812
-0.43071452
-0.42364974
-0.411081
-0.3941811
-0.37538017
-0.35737758
-0.34220479
-0.33098805
-0.32397134
-0.32047446
-0.31894828
-0.31729601
-0.3133649
-0.30538051
-0.29214192
-0.27368219
-0.25145929
-0.22766714
-0.20417153
-0.18077331
-0.15793022
-0.12867349
-0.10693663
-0.05364878
-0.076411508
0.1227955
1.4420663
1.4416434
1.4404929
1.4387316
1.4359984
1.43178
1.4258763
1.4183803
1.409217
1.3979059
1.3838243
1.3665595
1.3459139
1.3216148
1.2930786
1.2594123
1.2195578
1.1724065
1.1168425
1.0517623
0.97610246
0.88884022
0.78898753
0.67565185
0.54820636
0.40646114
0.25073719
0.081912345
-0.098366325
-0.28731497
-0.48082883
-0.67371665
-0.86016037
-1.0340979
-1.18958
-1.3212943
-1.4251839
-1.4989303
-1.542074
-1.5558889
-1.5431206
-1.5075241
-1.4536446
-1.3864381
-1.3107771
-1.2314562
-1.1527276
-1.0779034
-1.0084735
-0.94370213
-0.88242052
-0.82428476
-0.77047863
-0.72256148
-0.68072367
-0.64392284
-0.61095743
-0.58170405
-0.55735913
-0.53902043
-0.52606923
-0.51618859
-0.50631358
-0.49459406
-0.48089132
-0.46584646
-0.45018777
-0.43418281
-0.41857885
-0.40508191
-0.39605564
-0.39351138
-0.39740103
-0.40524729
-0.41268998
-0.41526856
-0.41007843
-0.39660331
-0.37672796
-0.35371122
-0.33121222
-0.31238013
-0.29934882
-0.29274924
-0.2914136
-0.29267649
-0.29315188
-0.28993201
-0.28107866
-0.26626633
-0.24672613
-0.22469016
-0.20211593
-0.17909195
-0.15625901
-0.12605305
-0.1025527
-0.049893395
-0.074704679
0.12062958
1.4754708
1.4752553
1.4745575
1.4735374
1.4718124
1.4688097
1.4643321
1.4585117
1.4513007
1.4422205
1.4306342
1.4161075
1.3984147
1.377248
1.3519734
1.3216248
1.2850415
1.240982
1.1881605
1.1252666
1.050984
0.96398666
0.86292417
0.74649863
0.61365847
0.46381602
0.29696955
0.11380572
-0.084039083
-0.29355397
-0.51008678
-0.72750118
-0.93866422
-1.1360064
-1.3120647
-1.4600513
-1.5745917
-1.6524505
-1.6930392
-1.698547
-1.6732507
-1.622668
-1.5527427
-1.4689536
-1.3764481
-1.2800354
-1.1846175
-1.0947948
-1.0130942
-0.94015001
-0.87483407
-0.81597222
-0.76317347
-0.71588064
-0.67322542
-0.6334628
-0.59524084
-0.55885897
-0.52633588
-0.50044215
-0.48290508
-0.47345676
-0.47029709
-0.47077742
-0.4719345
-0.47044684
-0.46291776
-0.44741471
-0.42473838
-0.39905435
-0.37650012
-0.36273288
-0.36058905
-0.36876314
-0.38262254
-0.39587593
-0.40280454
-0.39979069
-0.38610946
-0.36382286
-0.33697898
-0.31056665
-0.28910734
-0.27544309
-0.26979517
-0.26985187
-0.2716755
-0.27134991
-0.266038
-0.2547757
-0.23838429
-0.21882751
-0.19798758
-0.17585728
-0.15348541
-0.1237975
-0.099909886
-0.046811566
-0.071860512
0.11930577
1.5092835
1.5092058
1.5089995
1.5088048
1.5081815
1.5065041
1.5035857
1.499606
1.4945502
1.4879462
1.4791494
1.4677109
1.4533868
1.4358439
1.4144065
1.3880396
1.3554811
1.3153521
1.2661924
1.2064687
1.1345832
1.048854
0.94749799
0.82871636
0.69091508
0.5329645
0.35439342
0.1555613
-0.062021681
-0.29521014
-0.53882287
-0.7856339
-1.0268288
-1.2527919
-1.4539449
-1.6216075
-1.7489087
-1.8316173
-1.8689023
-1.8635226
-1.8211907
-1.7499141
-1.6583314
-1.5541339
-1.4434469
-1.3305871
-1.2197018
-1.1145767
-1.0179105
-0.93128253
-0.85506752
-0.78968231
-0.73541492
-0.69176269
-0.65654774
-0.62601516
-0.59576194
-0.56252616
-0.52579163
-0.48757192
-0.45209569
-0.42436886
-0.40869488
-0.40729179
-0.41816023
-0.43497811
-0.44848697
-0.45006999
-0.43587437
-0.40830955
-0.3752762
-0.34644213
-0.32951939
-0.32771256
-0.33908423
-0.35793188
-0.37668073
-0.38827165
-0.38797882
-0.37461371
-0.35075257
-0.32184108
-0.29434523
-0.27345512
-0.2614196
-0.25722099
-0.25733613
-0.25744452
-0.25387686
-0.24487892
-0.2307014
-0.21299638
-0.19349358
-0.1721177
-0.1500441
-0.12103849
-0.097888344
-0.044934521
-0.069159194
0.11926737
1.5432749
1.5434588
1.5436983
1.5444016
1.5449869
1.5447262
1.5434783
1.5414971
1.5388024
1.5349284
1.5292278
1.5212463
1.5107338
1.4973434
1.4803697
1.4587185
1.431033
1.3957985
1.3513774
1.2960053
1.2277789
1.1446128
1.0442109
0.92415873
0.78217631
0.61642308
0.42575922
0.21000179
-0.029666038
-0.29009394
-0.5655899
-0.84769656
-1.1255902
-1.3869647
-1.6192404
-1.8109791
-1.9532589
-2.0409804
-2.0736277
-2.0547141
-1.9914072
-1.8935837
-1.772544
-1.6397515
-1.504063
-1.3718692
-1.2473551
-1.1326793
-1.0286844
-0.93396007
-0.84703714
-0.76757649
-0.69721285
-0.63929658
-0.59679409
-0.57054829
-0.55738952
-0.55016199
-0.5395088
-0.51737814
-0.4809564
-0.43521093
-0.39174238
-0.36363044
-0.35898934
-0.37621597
-0.40447525
-0.42845848
-0.43534486
-0.42023473
-0.38722136
-0.34693572
-0.31150928
-0.29034732
-0.28735753
-0.30045336
-0.3228235
-0.34521855
-0.35905009
-0.35892205
-0.34433347
-0.31948506
-0.291393
-0.26695276
-0.2503579
-0.24230739
-0.24031133
-0.24027723
-0.23797709
-0.23087316
-0.2185953
-0.2024509
-0.18411289
-0.1635346
-0.14195609
-0.1133839
-0.091288198
-0.039691978
-0.063816711
0.12172305
1.5772845
1.5776122
1.5783929
1.580081
1.5819373
1.5831774
1.5837241
1.5839108
1.5837867
1.5828969
1.5805967
1.576444
1.5701952
1.561511
1.549667
1.5335304
1.5116573
1.4824142
1.443982
1.3943661
1.331332
1.2523589
1.1545564
1.0347826
0.88988655
0.71710672
0.51435864
0.28062128
0.01643744
-0.27525865
-0.58833417
-0.91295462
-1.235867
-1.5413795
-1.8128831
-2.0349191
-2.1952957
-2.2875441
-2.3119072
-2.2743419
-2.1850281
-2.0560649
-1.9007134
-1.7323882
-1.5626565
-1.401338
-1.2551927
-1.1284351
-1.0215903
-0.93109891
-0.85068135
-0.7730642
-0.69366173
-0.61311813
-0.53889223
-0.48297518
-0.45560322
-0.45858309
-0.48102677
-0.50244091
-0.50279455
-0.47306668
-0.42116525
-0.36726223
-0.33290464
-0.33023257
-0.3563042
-0.39602298
-0.42957793
-0.44150333
-0.42650634
-0.39002251
-0.34483909
-0.30521738
-0.281949
-0.27909646
-0.29348991
-0.31650242
-0.33742144
-0.34741516
-0.34243083
-0.32424452
-0.29893364
-0.27394373
-0.25486976
-0.24398813
-0.24007115
-0.23953725
-0.23795049
-0.23212112
-0.22108305
-0.20570466
-0.18755644
-0.16669609
-0.14453258
-0.11520972
-0.092467946
-0.041474058
-0.065854884
0.11952699
1.6110365
1.6116253
1.6129991
1.6156479
1.6188113
1.6216521
1.6241435
1.6266721
1.6293246
1.6316552
1.6330465
1.6330791
1.6315496
1.6281349
1.6221255
1.6123523
1.5973223
1.5752853
1.5442785
1.5020576
1.4460676
1.3732949
1.2802206
1.1628296
1.0169403
0.83855765
0.62432666
0.37192812
0.080850086
-0.24659745
-0.60400388
-0.98005136
-1.3585105
-1.7193036
-2.040682
-2.3016155
-2.4851854
-2.582093
-2.5923993
-2.525959
-2.3989979
-2.2302427
-2.0376928
-1.8351756
-1.6334945
-1.4398251
-1.2603569
-1.1013245
-0.96853932
-0.86744087
-0.79806239
-0.75163952
-0.7104482
-0.65514281
-0.57714941
-0.48622392
-0.40759553
-0.36720396
-0.37402551
-0.41237848
-0.44987395
-0.45668025
-0.42210681
-0.35926239
-0.29577479
-0.25838775
-0.26025731
-0.2961214
-0.34686003
-0.38896811
-0.40521251
-0.39074862
-0.35329079
-0.30817153
-0.27111105
-0.25247862
-0.25423786
-0.27062606
-0.29124781
-0.30555991
-0.30696875
-0.29476285
-0.2735339
-0.25031169
-0.23143087
-0.2203499
-0.21697466
-0.21817902
-0.21946374
-0.21706415
-0.20942864
-0.19677876
-0.18043019
-0.16050608
-0.13874021
-0.10952772
-0.086662313
-0.036116347
-0.060358122
0.12154872
1.6443468
1.6451186
1.6471255
1.6507938
1.6553245
1.659863
1.6644351
1.6694693
1.6750816
1.6808445
1.686189
1.690745
1.6943781
1.6968029
1.6973507
1.6948357
1.6877471
1.6742477
1.6522688
1.6193365
1.5725816
1.5084699
1.4228063
1.3106003
1.16646
0.98482399
0.76058844
0.489541
0.16948005
-0.19849422
-0.60813851
-1.0466898
-1.4943148
-1.9250746
-2.3099539
-2.6203814
-2.833584
-2.936589
-2.9290487
-2.8230137
-2.6411626
-2.4125949
-2.1663023
-1.9241398
-1.6973926
-1.4871864
-1.2899845
-1.1016059
-0.92490144