/*--------------------------------*- C++ -*----------------------------------*\
| =========                 |                                                 |
| \\      /  F ield         | OpenFOAM: The Open Source CFD Toolbox           |
|  \\    /   O peration     | Version:  2406                                  |
|   \\  /    A nd           | Website:  www.openfoam.com                      |
|    \\/     M anipulation  |                                                 |
\*---------------------------------------------------------------------------*/
FoamFile
{
    version     2.0;
    format      ascii;
    arch        "LSB;label=32;scalar=64";
    class       surfaceScalarField;
    location    "400";
    object      phi;
}
// * * * * * * * * * * * * * * * * * * * * * * * * * * * * * * * * * * * * * //

dimensions      [0 3 -1 0 0 0 0];

oriented        oriented;

internalField   nonuniform List<scalar> 
39940
(
0.75000195
-1.9026186e-06
0.75000578
-6.2593963e-06
0.75001215
-1.1483078e-05
0.75002088
-1.7161211e-05
0.75003198
-2.3232026e-05
0.75004549
-2.9731192e-05
0.75006203
-3.7242841e-05
0.75008045
-4.3941527e-05
0.7501014
-5.1600567e-05
0.75012491
-5.9623297e-05
0.75015098
-6.7994173e-05
0.75017962
-7.6710262e-05
0.75021142
-8.6344336e-05
0.75024514
-9.5084073e-05
0.75028138
-0.00010468857
0.7503201
-0.00011453349
0.75036187
-0.00012516248
0.7504054
-0.0001347356
0.75045178
-0.0001455836
0.75049966
-0.0001552479
0.75055001
-0.00016604532
0.7506014
-0.00017549979
0.75065473
-0.00018592098
0.75070849
-0.00019482774
0.75076355
-0.00020452684
0.75081837
-0.00021253504
0.75087381
-0.00022116015
0.75092832
-0.00022793344
0.75098274
-0.00023518718
0.75103548
-0.0002404734
0.75108733
-0.00024615393
0.75113668
-0.00024981775
0.75118375
-0.00025326544
0.75122889
-0.00025655478
0.75127072
-0.00025796105
0.75130969
-0.00025936728
0.75134561
-0.0002602113
0.75137829
-0.00026060221
0.75140766
-0.00026075177
0.75143314
-0.00026027007
0.75145603
-0.0002610231
0.75147587
-0.00026124406
0.75149237
-0.00026109825
0.75150714
-0.00026275534
0.75151938
-0.00026410401
0.75153048
-0.00026754904
0.75153922
-0.00027049309
0.75154676
-0.00027525702
0.75155211
-0.00027968868
0.75155702
-0.00028669104
0.75156106
-0.00029417116
0.75156609
-0.00030450463
0.7515712
-0.00031493408
0.75157753
-0.00032752684
0.75158362
-0.00033987615
0.75159061
-0.0003546961
0.75159813
-0.00037059089
0.75160611
-0.00038784288
0.75161638
-0.00040820227
0.75162875
-0.0004296771
0.75164274
-0.00045204686
0.75165937
-0.00047706913
0.75167782
-0.00050305981
0.75169799
-0.00053082141
0.75172007
-0.00056047316
0.75174447
-0.00059207398
0.75177108
-0.00062497027
0.75180143
-0.00066098808
0.75183503
-0.00069840561
0.75187172
-0.00073802497
0.75191128
-0.00078004625
0.75195354
-0.00082464306
0.75199854
-0.00087186811
0.75204653
-0.00092178047
0.75209796
-0.00097435365
0.75215323
-0.0010296318
0.75221268
-0.0010876594
0.75227643
-0.0011486547
0.75234451
-0.0012128889
0.75241686
-0.0012806887
0.75249348
-0.0013522826
0.7525744
-0.0014279572
0.75265983
-0.0015078811
0.75274994
-0.0015923144
0.75284487
-0.0016814489
0.75294461
-0.0017756881
0.75304916
-0.0018752578
0.75315846
-0.0019803967
0.75327243
-0.0020912072
0.75339076
-0.0022081565
0.75351299
-0.0023315871
0.75363829
-0.0024619348
0.75376553
-0.0025990871
0.75389303
-0.0027431206
0.75401871
-0.0028928806
0.75414116
-0.0030479529
0.75425884
-0.0032042114
0.75437065
-0.0033675458
0.75448633
-0.0034972885
-0.003737253
0.75000118
-3.4792739e-06
0.75000442
-1.0439231e-05
0.75001072
-1.8737574e-05
0.75001886
-2.6281878e-05
0.75002943
-3.4816403e-05
0.75004244
-4.37594e-05
0.75005729
-5.311488e-05
0.75007525
-6.285599e-05
0.75009634
-7.357683e-05
0.7501194
-8.3471151e-05
0.75014504
-9.4335532e-05
0.75017387
-0.00010614819
0.75020407
-0.00011708896
0.75023803
-0.00012951915
0.75027393
-0.00014100062
0.75031296
-0.00015387419
0.75035386
-0.00016628035
0.75039779
-0.00017873854
0.75044282
-0.00019056664
0.75049121
-0.00020346411
0.75054096
-0.00021552444
0.75059301
-0.00022723055
0.75064649
-0.00023906697
0.75070108
-0.00024911107
0.75075586
-0.00025904512
0.75081168
-0.00026814312
0.750867
-0.00027629378
0.75092266
-0.00028340337
0.7509771
-0.00028940055
0.7510311
-0.00029422809
0.75108305
-0.00029785071
0.75113369
-0.00030026195
0.75118144
-0.00030090013
0.75122664
-0.00030167034
0.75126909
-0.00030030814
0.75130859
-0.00029871946
0.75134493
-0.00029638057
0.75137794
-0.00029347718
0.75140753
-0.00029030745
0.75143371
-0.00028653069
0.75145653
-0.00028406383
0.75147553
-0.00028061198
0.75149222
-0.0002782737
0.75150587
-0.00027686368
0.7515181
-0.00027659199
0.75152787
-0.00027735912
0.75153634
-0.00027896231
0.75154223
-0.00028151404
0.751547
-0.00028549229
0.75155005
-0.00029142105
0.75155338
-0.00029944912
0.75155647
-0.00030925037
0.75156081
-0.00032030794
0.75156506
-0.00033238873
0.75157019
-0.0003456996
0.7515749
-0.00036075901
0.75158007
-0.00037799291
0.75158687
-0.00039749151
0.75159532
-0.00041960628
0.75160525
-0.00044220784
0.75161856
-0.00046751463
0.75163265
-0.00049320282
0.75164909
-0.00052191177
0.75166718
-0.00055204615
0.75168652
-0.00058366768
0.75170871
-0.00061850713
0.75173423
-0.0006546533
0.75176219
-0.00069273683
0.7517933
-0.00073291625
0.75182739
-0.00077549691
0.75186364
-0.00082014363
0.75190309
-0.00086881406
0.75194517
-0.00091971661
0.75199016
-0.00097338906
0.75203846
-0.0010297908
0.75209047
-0.0010889243
0.75214648
-0.0011508797
0.75220659
-0.0012159198
0.75227081
-0.0012843798
0.75233906
-0.0013565815
0.75241132
-0.001432788
0.75248764
-0.0015132255
0.75256817
-0.0015980976
0.75265305
-0.0016875892
0.75274241
-0.0017818955
0.75283627
-0.0018812613
0.75293456
-0.0019859938
0.75303722
-0.0020962065
0.75314408
-0.0022120318
0.75325491
-0.0023336608
0.75336921
-0.0024614787
0.7534864
-0.0025956065
0.75360543
-0.0027360495
0.75372526
-0.0028824573
0.75384416
-0.003033937
0.7539617
-0.0031898725
0.75407973
-0.0033465151
0.75420418
-0.0035134604
0.75433678
-0.0036452665
-0.0038907537
0.75000158
-4.8537522e-06
0.75000473
-1.4471014e-05
0.75000978
-2.467658e-05
0.75001787
-3.5281304e-05
0.75002838
-4.6256528e-05
0.75004131
-5.7625325e-05
0.75005729
-7.0006302e-05
0.75007517
-8.1591429e-05
0.750095
-9.4171629e-05
0.75011862
-0.00010774719
0.75014422
-0.00012050794
0.75017243
-0.00013483546
0.75020383
-0.00014889547
0.75023722
-0.00016324638
0.75027379
-0.00017782917
0.75031233
-0.0001925748
0.7503534
-0.00020739595
0.75039695
-0.0002221948
0.75044347
-0.00023685532
0.75049223
-0.00025185083
0.75054301
-0.00026583892
0.75059497
-0.00027867002
0.75064844
-0.00029199152
0.75070369
-0.00030384575
0.7507592
-0.00031407341
0.75081582
-0.00032431996
0.75087259
-0.00033264144
0.75092914
-0.000339522
0.75098449
-0.00034427048
0.75103942
-0.00034862671
0.75109226
-0.00035015811
0.75114316
-0.00035067645
0.75119232
-0.00034965076
0.75123825
-0.00034722386
0.75128134
-0.00034296797
0.75132194
-0.00033883162
0.75135865
-0.00033256905
0.75139133
-0.00032563775
0.75142111
-0.00031959088
0.75144731
-0.00031233585
0.75146937
-0.00030589379
0.75148864
-0.00029990147
0.75150493
-0.00029472299
0.75151819
-0.00029009964
0.75153002
-0.00028795899
0.75153932
-0.00028580173
0.75154658
-0.00028541502
0.75155235
-0.00028711174
0.75155577
-0.00028963217
0.75155813
-0.00029513076
0.75156031
-0.00030289971
0.75156356
-0.00031305145
0.75156688
-0.00032333912
0.75157128
-0.00033614359
0.75157528
-0.00034946661
0.75158002
-0.00036623387
0.75158523
-0.00038491311
0.75159154
-0.00040595517
0.75159899
-0.00042898994
0.75160921
-0.00045369842
0.75162104
-0.00048004542
0.75163609
-0.00050884176
0.75165169
-0.0005385561
0.75166956
-0.00057173267
0.75168929
-0.00060589279
0.75171127
-0.00064326731
0.75173533
-0.00068134031
0.75176299
-0.00072258708
0.75179373
-0.00076549133
0.7518274
-0.00081099799
0.75186441
-0.00085941012
0.75190344
-0.00091083506
0.75194456
-0.0009646189
0.75198922
-0.0010224581
0.75203721
-0.0010824767
0.7520889
-0.001145303
0.75214452
-0.0012110709
0.75220417
-0.0012800571
0.75226783
-0.0013526239
0.75233543
-0.0014290786
0.75240697
-0.0015096877
0.75248253
-0.0015946621
0.75256229
-0.0016841813
0.75264642
-0.00177842
0.75273511
-0.0018775453
0.75282835
-0.0019817591
0.7529261
-0.0020912918
0.75302826
-0.0022062755
0.75313473
-0.0023267415
0.75324529
-0.0024528523
0.75335961
-0.0025848123
0.75347727
-0.0027228139
0.75359769
-0.0028666927
0.75371977
-0.003016127
0.75384222
-0.0031701132
0.75396467
-0.0033285388
0.75408774
-0.0034871971
0.75421304
-0.0036550495
0.75433962
-0.0037826779
-0.0040511047
0.75000092
-6.1378904e-06
0.75000389
-1.8277407e-05
0.75000926
-3.0906013e-05
0.75001702
-4.3898927e-05
0.75002777
-5.7878025e-05
0.75004033
-7.1055631e-05
0.75005474
-8.5255336e-05
0.75007285
-0.00010047605
0.75009291
-0.00011491515
0.75011556
-0.00013097135
0.75014142
-0.00014683834
0.75016929
-0.0001630925
0.75019978
-0.00017969796
0.75023291
-0.00019659961
0.75026866
-0.00021372959
0.75030763
-0.00023159825
0.75034861
-0.0002483005
0.75039275
-0.00026611189
0.75043935
-0.00028309056
0.75048767
-0.00029967644
0.75053813
-0.00031569467
0.75059168
-0.00033155832
0.75064564
-0.00034527425
0.7507015
-0.00035904645
0.75075833
-0.00037027505
0.75081576
-0.00038116614
0.75087284
-0.00038914031
0.75093037
-0.00039645296
0.75098736
-0.00040059712
0.75104274
-0.00040330917
0.75109723
-0.00040395463
0.75114912
-0.00040194432
0.75119924
-0.00039918075
0.75124605
-0.00039344735
0.75129048
-0.00038676473
0.75133045
-0.00037813437
0.75136758
-0.00036898364
0.75140175
-0.00035902866
0.75143104
-0.00034807895
0.75145711
-0.00033774529
0.75147935
-0.00032777958
0.75149742
-0.00031791764
0.75151246
-0.00030969231
0.75152564
-0.00030276421
0.75153606
-0.00029726038
0.75154432
-0.00029263661
0.75155089
-0.00029089894
0.751554
-0.00029005503
0.75155654
-0.00029291815
0.75155753
-0.00029719988
0.75155903
-0.00030500266
0.75156043
-0.00031404798
0.75156301
-0.00032469144
0.75156532
-0.0003371162
0.7515683
-0.00035181059
0.75157075
-0.00036918346
0.75157366
-0.00038926687
0.75157831
-0.00041232291
0.75158414
-0.00043609776
0.75159272
-0.0004627798
0.75160349
-0.00049067652
0.75161565
-0.0005207125
0.75163016
-0.00055316701
0.75164635
-0.00058867836
0.75166437
-0.00062528329
0.75168397
-0.00066453944
0.75170732
-0.00070633507
0.75173289
-0.0007495878
0.75176078
-0.00079459094
0.7517921
-0.00084352691
0.75182609
-0.00089486422
0.7518627
-0.00094932583
0.7519026
-0.0010068727
0.75194426
-0.0010667918
0.7519898
-0.0011308391
0.75203892
-0.0011972366
0.75209178
-0.0012667345
0.75214845
-0.0013395893
0.75220889
-0.0014161249
0.75227305
-0.0014966409
0.75234095
-0.0015813776
0.75241267
-0.0016705317
0.7524884
-0.0017642662
0.75256832
-0.0018627623
0.7526526
-0.00196621
0.7527413
-0.0020747439
0.75283432
-0.0021885767
0.75293153
-0.0023078321
0.75303274
-0.0024325529
0.75313778
-0.0025627455
0.75324636
-0.0026985267
0.75335818
-0.0028400294
0.75347277
-0.0029871508
0.75358929
-0.0031394303
0.75370654
-0.0032961996
0.75382387
-0.0034572517
0.75394293
-0.0036189118
0.75406748
-0.0037911936
0.75420637
-0.003929002
-0.0042080984
0.75000087
-7.3627201e-06
0.75000369
-2.190414e-05
0.75000951
-3.7538914e-05
0.75001711
-5.2320362e-05
0.7500265
-6.8094794e-05
0.7500395
-8.4872216e-05
0.75005434
-0.00010087714
0.75007167
-0.00011852402
0.75009156
-0.00013541817
0.75011405
-0.00015396329
0.75013917
-0.00017235198
0.75016754
-0.00019176168
0.75019797
-0.00021034865
0.75023169
-0.00023045262
0.7502675
-0.00024958963
0.75030601
-0.00027005688
0.75034781
-0.00028992618
0.75039228
-0.00031025078
0.75043872
-0.000329059
0.75048821
-0.00034855942
0.75053996
-0.00036673948
0.75059314
-0.00038397291
0.75064868
-0.00040002436
0.75070566
-0.00041525193
0.75076373
-0.00042761001
0.75082253
-0.0004392623
0.75088167
-0.00044758823
0.75094016
-0.00045421174
0.75099875
-0.00045840674
0.75105634
-0.00046009136
0.7511124
-0.00045922037
0.75116641
-0.00045521931
0.75121736
-0.0004494266
0.75126547
-0.00044086293
0.75131042
-0.00043098053
0.75135251
-0.00041943769
0.75139038
-0.00040594528
0.75142388
-0.00039151717
0.75145401
-0.00037724978
0.75148
-0.00036304961
0.7515013
-0.00034877675
0.75151951
-0.00033600618
0.75153406
-0.00032383398
0.75154667
-0.00031431296
0.75155573
-0.00030466808
0.75156355
-0.00029879143
0.75156827
-0.00029463772
0.75157129
-0.00029314906
0.75157146
-0.00029388526
0.75157207
-0.00029851084
0.7515721
-0.00030488268
0.75157263
-0.00031332578
0.75157366
-0.00032386065
0.75157496
-0.00033680971
0.75157633
-0.00035255806
0.75157845
-0.00037185036
0.75158115
-0.0003932604
0.75158448
-0.00041694331
0.75159022
-0.00044253255
0.75159752
-0.00046997082
0.7516076
-0.00050011917
0.75161973
-0.00053211804
0.75163371
-0.00056676662
0.75164888
-0.00060400465
0.75166656
-0.00064358645
0.7516864
-0.00068527608
0.75170871
-0.00072958839
0.7517331
-0.00077486058
0.75176149
-0.00082379866
0.75179142
-0.00087431911
0.75182463
-0.00092909758
0.75186051
-0.00098645156
0.75189919
-0.0010469935
0.75194152
-0.0011106657
0.75198593
-0.001176825
0.75203444
-0.0012473358
0.75208659
-0.0013205316
0.75214241
-0.0013972424
0.75220188
-0.0014777337
0.75226498
-0.001562253
0.75233175
-0.001651012
0.75240228
-0.0017441793
0.75247679
-0.0018419442
0.75255548
-0.0019445146
0.75263859
-0.0020521092
0.75272621
-0.002164881
0.7528183
-0.0022829633
0.75291466
-0.0024064829
0.75301514
-0.0025354508
0.75311954
-0.002669838
0.75322773
-0.0028096685
0.75333955
-0.0029550762
0.75345472
-0.0031059359
0.75357264
-0.003261922
0.75369231
-0.0034224042
0.7538135
-0.0035876497
0.75393772
-0.0037537281
0.75406945
-0.0039323316
0.75420495
-0.0040705907
-0.0043613985
0.75000145
-8.5354219e-06
0.75000418
-2.5426787e-05
0.75000866
-4.2800278e-05
0.75001605
-6.0510029e-05
0.75002638
-7.9227104e-05
0.75003789
-9.7160714e-05
0.75005301
-0.00011674182
0.75007001
-0.00013619607
0.75009016
-0.00015613848
0.75011232
-0.00017657467
0.75013712
-0.00019749868
0.7501646
-0.00021948672
0.75019539
-0.00024129294
0.75022831
-0.00026344799
0.7502646
-0.00028585769
0.75030307
-0.0003084022
0.75034494
-0.00033153632
0.75038898
-0.00035388638
0.75043693
-0.00037645445
0.75048626
-0.00039721087
0.75053862
-0.00041830612
0.75059316
-0.00043766967
0.75064963
-0.00045561956
0.7507077
-0.00047246577
0.75076702
-0.00048610963
0.75082721
-0.00049866294
0.75088788
-0.00050746178
0.75094859
-0.00051409621
0.75100886
-0.00051780899
0.75106813
-0.00051848502
0.75112583
-0.00051606789
0.75118143
-0.00051000525
0.75123384
-0.00050106612
0.75128385
-0.00049009818
0.75132987
-0.00047618891
0.75137223
-0.00046087934
0.75141073
-0.00044338678
0.75144513
-0.00042482162
0.75147519
-0.00040636319
0.75150016
-0.00038741313
0.75152141
-0.00036971859
0.75153825
-0.00035249923
0.75155191
-0.00033668037
0.75156281
-0.00032377285
0.75157165
-0.0003117471
0.75157716
-0.00030284507
0.75157943
-0.00029623776
0.75158007
-0.00029392645
0.75157922
-0.00029346522
0.7515777
-0.00029703022
0.7515762
-0.0003025809
0.75157506
-0.00031063073
0.7515743
-0.00032131724
0.75157375
-0.00033492765
0.75157395
-0.00035226407
0.75157386
-0.00037207135
0.7515745
-0.00039462781
0.751577
-0.00042009766
0.75158065
-0.00044640868
0.75158693
-0.00047599668
0.75159474
-0.00050732661
0.75160519
-0.00054190283
0.75161699
-0.00057802106
0.75163129
-0.00061797885
0.75164756
-0.00065974964
0.75166596
-0.00070376036
0.75168611
-0.00074999506
0.75170997
-0.00079917613
0.75173524
-0.00084971882
0.75176435
-0.00090426047
0.75179489
-0.00096059744
0.75182872
-0.00102129
0.75186536
-0.0010846254
0.75190504
-0.0011512347
0.75194856
-0.0012211462
0.75199429
-0.0012938301
0.75204413
-0.0013712338
0.7520975
-0.0014517229
0.75215436
-0.0015360894
0.75221469
-0.0016245163
0.75227853
-0.0017171518
0.752346
-0.0018141724
0.75241731
-0.0019157761
0.75249271
-0.0020222148
0.7525724
-0.0021337239
0.75265649
-0.0022504871
0.75274496
-0.0023726224
0.75283765
-0.002500246
0.75293435
-0.0026333762
0.75303492
-0.0027719255
0.75313927
-0.0029159167
0.75324729
-0.0030653782
0.75335874
-0.0032202072
0.7534731
-0.0033801678
0.75358947
-0.0035448052
0.75370745
-0.0037143606
0.75382901
-0.0038852665
0.75395789
-0.0040695984
0.75409913
-0.004217148
-0.0045285407
0.75000081
-9.6821509e-06
0.75000346
-2.881411e-05
0.75000838
-4.8470504e-05
0.75001619
-6.9070779e-05
0.75002509
-8.8893126e-05
0.75003754
-0.0001103588
0.7500518
-0.00013170354
0.75006854
-0.00015356029
0.75008784
-0.00017595241
0.75011035
-0.00019949116
0.75013493
-0.00022237334
0.75016223
-0.00024697614
0.75019229
-0.00027145063
0.75022575
-0.00029692297
0.75026206
-0.00032208822
0.75030126
-0.0003474135
0.75034338
-0.00037333418
0.75038842
-0.00039845227
0.75043572
-0.00042313842
0.75048699
-0.00044772824
0.75054027
-0.00047072914
0.75059595
-0.00049242429
0.75065375
-0.00051248078
0.75071335
-0.00053114989
0.75077501
-0.0005468762
0.75083652
-0.00055931306
0.75089986
-0.00056995016
0.75096338
-0.00057672547
0.75102591
-0.0005794317
0.75108747
-0.00057911931
0.75114684
-0.00057452982
0.75120462
-0.00056693442
0.75125967
-0.00055531212
0.75131149
-0.00054112682
0.75135909
-0.00052291884
0.75140277
-0.00050353801
0.75144226
-0.00048172358
0.75147724
-0.00045869054
0.75150744
-0.00043570962
0.75153221
-0.00041165671
0.75155247
-0.00038955645
0.75156875
-0.00036811625
0.7515822
-0.00034895929
0.75159132
-0.00033131273
0.75159803
-0.00031687299
0.75160182
-0.00030550027
0.75160299
-0.00029690612
0.75160212
-0.00029296117
0.75159993
-0.00029112434
0.75159653
-0.00029301579
0.75159365
-0.00029850881
0.75159096
-0.00030641376
0.75158856
-0.00031746696
0.75158645
-0.00033180715
0.75158471
-0.00035007388
0.75158355
-0.0003708977
0.75158332
-0.00039454292
0.75158442
-0.00042126867
0.75158781
-0.00044967533
0.75159256
-0.00048041336
0.75159997
-0.00051428691
0.75160888
-0.00055026896
0.75162045
-0.00058900119
0.75163406
-0.00063097274
0.75164913
-0.00067424499
0.75166697
-0.00072115505
0.75168711
-0.00076991949
0.75170969
-0.00082183626
0.7517348
-0.0008752063
0.75176187
-0.00093196698
0.75179273
-0.00099227024
0.75182505
-0.0010544744
0.75186077
-0.0011211574
0.7518995
-0.0011906337
0.75194145
-0.0012636111
0.75198741
-0.0013401913
0.75203564
-0.0014198909
0.75208795
-0.0015046417
0.75214369
-0.001592752
0.75220281
-0.0016849476
0.75226535
-0.0017813519
0.75233143
-0.0018821462
0.75240129
-0.001987564
0.75247518
-0.0020978635
0.75255333
-0.0022132993
0.75263588
-0.0023340707
0.75272287
-0.0024603186
0.75281415
-0.002592132
0.75290957
-0.0027295266
0.75300902
-0.002872427
0.75311249
-0.0030208299
0.7532199
-0.0031747254
0.75333103
-0.0033339783
0.75344543
-0.003498485
0.7535623
-0.0036678318
0.7536815
-0.0038425785
0.75380497
-0.0040188512
0.75393702
-0.004210383
0.75407554
-0.0043608776
-0.0046824107
0.7500008
-1.0776131e-05
0.75000398
-3.2706468e-05
0.75000876
-5.3970404e-05
0.75001517
-7.6199103e-05
0.75002503
-9.9480098e-05
0.7500366
-0.00012263934
0.75005055
-0.00014631716
0.75006695
-0.00017055339
0.7500865
-0.00019598195
0.75010806
-0.00022142251
0.75013291
-0.00024747638
0.7501599
-0.00027412293
0.7501903
-0.00030191404
0.75022297
-0.00032956994
0.75025918
-0.00035818014
0.7502984
-0.00038639694
0.75034008
-0.00041463718
0.75038542
-0.0004432803
0.75043441
-0.00047146352
0.75048577
-0.00049828477
0.75053995
-0.0005240078
0.75059736
-0.00054886453
0.75065713
-0.00057126466
0.75071835
-0.0005913965
0.75078125
-0.00060883875
0.75084602
-0.00062317757
0.7509116
-0.00063463572
0.75097689
-0.00064108979
0.75104248
-0.00064407802
0.75110653
-0.00064221703
0.75116896
-0.00063604132
0.7512291
-0.00062621179
0.7512863
-0.00061170359
0.75134003
-0.00059402093
0.75138987
-0.00057180377
0.75143484
-0.00054742094
0.75147516
-0.00052091863
0.75151046
-0.00049300246
0.75153991
-0.00046443345
0.75156483
-0.0004360028
0.7515844
-0.00040845871
0.75159969
-0.00038243946
0.75161054
-0.00035849957
0.75161839
-0.00033777773
0.7516229
-0.00032019489
0.75162378
-0.00030557588
0.75162217
-0.00029474812
0.75161871
-0.00028893058
0.75161464
-0.00028623971
0.75160993
-0.00028718491
0.75160438
-0.00029170775
0.75159889
-0.00029976706
0.75159426
-0.00031191941
0.75159005
-0.00032692994
0.75158645
-0.00034594053
0.75158369
-0.00036762097
0.751582
-0.0003923572
0.75158169
-0.00042050152
0.75158303
-0.0004506659
0.75158686
-0.00048399111
0.75159214
-0.00051931934
0.75160014
-0.00055790618
0.75160964
-0.00059795392
0.75162182
-0.00064242592
0.75163611
-0.00068770115
0.75165198
-0.00073622342
0.75167077
-0.00078806695
0.75169136
-0.00084207451
0.75171563
-0.00089946091
0.75174178
-0.0009584557
0.75176981
-0.001020938
0.7518016
-0.0010870908
0.75183489
-0.0011553067
0.75187171
-0.0012282124
0.75191172
-0.0013041542
0.75195509
-0.0013838608
0.75200252
-0.00146746
0.75205221
-0.001554453
0.75210588
-0.0016467553
0.75216288
-0.0017426179
0.75222319
-0.0018427638
0.75228692
-0.0019473399
0.75235426
-0.0020566012
0.75242553
-0.0021707978
0.75250097
-0.0022901905
0.75258077
-0.0024149885
0.75266497
-0.0025453137
0.75275344
-0.0026812567
0.75284605
-0.0028228337
0.75294274
-0.0029700696
0.75304356
-0.0031229712
0.75314843
-0.0032814592
0.75325715
-0.0034453558
0.75336929
-0.0036146342
0.75348405
-0.0037890764
0.75360128
-0.0039692426
0.75372306
-0.0041514185
0.75385345
-0.004349463
0.75399507
-0.0045080685
-0.0048484166
0.75000137
-1.1843294e-05
0.75000326
-3.5265708e-05
0.75000849
-5.9878007e-05
0.75001529
-8.3679462e-05
0.75002429
-0.00010916553
0.75003556
-0.00013457075
0.75004917
-0.0001605444
0.75006582
-0.00018773719
0.7500844
-0.00021499364
0.75010561
-0.00024294221
0.75013012
-0.00027219165
0.75015741
-0.00030152392
0.75018698
-0.00033149279
0.7502201
-0.00036261709
0.75025627
-0.00039417874
0.75029557
-0.00042542028
0.75033809
-0.00045674026
0.75038387
-0.00048849315
0.7504329
-0.00051978563
0.75048573
-0.00055027735
0.75054165
-0.00057898456
0.75059987
-0.00060608329
0.75066134
-0.00063171861
0.75072515
-0.00065420624
0.75079092
-0.00067364921
0.75085822
-0.0006895554
0.75092658
-0.00070207106
0.75099541
-0.00070899064
0.75106347
-0.00071118722
0.75113124
-0.00070903927
0.75119736
-0.00070124974
0.75126105
-0.00068905814
0.75132101
-0.00067084993
0.75137663
-0.0006487954
0.75142863
-0.00062283447
0.7514753
-0.00059303242
0.75151675
-0.00056134236
0.75155261
-0.00052799227
0.75158217
-0.00049329123
0.75160625
-0.00045939079
0.75162524
-0.00042657926
0.75163952
-0.00039562765
0.75164943
-0.00036721129
0.75165469
-0.00034193963
0.75165637
-0.00032095151
0.75165501
-0.00030343984
0.7516519
-0.0002908026
0.75164645
-0.00028249015
0.75163923
-0.00027787553
0.75163192
-0.00027869911
0.75162492
-0.00028364859
0.75161738
-0.00029133649
0.75161082
-0.0003045763
0.75160427
-0.0003196292
0.75159855
-0.00033943446
0.75159443
-0.00036272934
0.75159151
-0.00038877103
0.75159003
-0.00041854173
0.75159086
-0.00045120191
0.75159246
-0.00048536794
0.75159738
-0.00052395261
0.75160386
-0.00056392353
0.75161307
-0.00060649453
0.75162374
-0.00065230734
0.75163712
-0.00070025193
0.75165272
-0.0007510344
0.7516701
-0.00080473532
0.75169055
-0.00086195935
0.75171288
-0.00092144699
0.75173827
-0.00098378221
0.75176666
-0.0010496196
0.7517963
-0.0011173272
0.75182972
-0.0011895379
0.75186477
-0.0012640757
0.75190353
-0.0013435483
0.75194561
-0.001426295
0.75199116
-0.0015130696
0.75204078
-0.0016039917
0.75209261
-0.0016985512
0.75214833
-0.0017986153
0.75220729
-0.0019024574
0.75226956
-0.0020108416
0.75233533
-0.0021239823
0.75240491
-0.0022421476
0.75247861
-0.0023655594
0.75255664
-0.0024944216
0.75263907
-0.0026288484
0.75272582
-0.0027689271
0.75281679
-0.0029147292
0.75291197
-0.0030663308
0.7530114
-0.0032237726
0.75311508
-0.0033869516
0.7532229
-0.0035557374
0.75333439
-0.0037301578
0.7534487
-0.0039099809
0.75356572
-0.0040960473
0.75368766
-0.0042842687
0.75381859
-0.0044898469
0.75395719
-0.004652224
-0.0050028359
0.75000075
-1.2859558e-05
0.75000377
-3.893044e-05
0.75000764
-6.4401669e-05
0.75001481
-9.1495908e-05
0.75002353
-0.00011852611
0.75003446
-0.0001461249
0.7500483
-0.00017495225
0.75006394
-0.00020387179
0.7500821
-0.0002335391
0.75010348
-0.00026459379
0.75012698
-0.00029585202
0.75015389
-0.00032850361
0.75018373
-0.00036130625
0.75021661
-0.00039537947
0.75025204
-0.00042940126
0.75029194
-0.0004650048
0.75033523
-0.0004995731
0.75038138
-0.00053403799
0.75043161
-0.00056927618
0.75048471
-0.00060250564
0.75054178
-0.0006350918
0.75060207
-0.0006653495
0.75066534
-0.0006939521
0.75073189
-0.00071973536
0.75080013
-0.00074091282
0.75087082
-0.00075930592
0.75094222
-0.00077255559
0.75101433
-0.00078016483
0.75108703
-0.0007829295
0.75115829
-0.00077936495
0.75122785
-0.0007699252
0.75129424
-0.00075462438
0.75135787
-0.00073368104
0.75141687
-0.00070693414
0.75147119
-0.00067621036
0.7515196
-0.00064046372
0.75156214
-0.00060297081
0.75159848
-0.00056353674
0.75162801
-0.00052208778
0.75165157
-0.00048216788
0.7516695
-0.00044360667
0.75168153
-0.00040668862
0.75168866
-0.00037338694
0.7516914
-0.00034379728
0.7516898
-0.00031850415
0.75168578
-0.00029850128
0.75167941
-0.00028339106
0.75167068
-0.00027263411
0.75166195
-0.00026801419
0.75165193
-0.00026764089
0.75164111
-0.0002718985
0.75163113
-0.00028048485
0.75162113
-0.0002937004
0.75161314
-0.00031073891
0.7516061
-0.00033153614
0.75159953
-0.00035543639
0.75159483
-0.00038354107
0.75159105
-0.00041442925
0.75158972
-0.00044961525
0.75159113
-0.00048642882
0.7515936
-0.00052585647
0.75159888
-0.00056843824
0.75160685
-0.00061359032
0.7516162
-0.0006608519
0.7516282
-0.00071156806
0.75164243
-0.00076465867
0.75165907
-0.00082078136
0.75167765
-0.00087988437
0.75169936
-0.00094254751
0.75172354
-0.0010075182
0.75174946
-0.0010755125
0.75177894
-0.0011472534
0.75180969
-0.0012211464
0.75184433
-0.0012997893
0.75188077
-0.0013809448
0.75192106
-0.0014672187
0.75196482
-0.0015569488
0.75201205
-0.0016509573
0.75206268
-0.0017487423
0.75211657
-0.00185224
0.75217365
-0.0019597128
0.75223393
-0.002071908
0.75229762
-0.0021890102
0.75236504
-0.0023112112
0.75243648
-0.0024387168
0.75251221
-0.002571678
0.75259231
-0.0027102711
0.75267678
-0.0028545635
0.75276554
-0.0030046886
0.75285859
-0.0031607365
0.75295595
-0.0033227941
0.75305766
-0.0034908476
0.7531637
-0.0036647893
0.75327362
-0.0038445712
0.75338651
-0.0040299907
0.75350223
-0.0042220036
0.75362287
-0.0044167365
0.75375264
-0.0046294354
0.75389312
-0.0047992989
-0.005166666
0.75000131
-1.3848856e-05
0.75000303
-4.1243659e-05
0.75000793
-6.9902169e-05
0.75001425
-9.842344e-05
0.75002265
-0.00012752398
0.75003381
-0.00015785173
0.75004663
-0.00018828108
0.75006182
-0.00021948797
0.75008009
-0.00025214172
0.75010038
-0.00028509484
0.750124
-0.00031957533
0.75014987
-0.00035438234
0.75017932
-0.00039068024
0.7502119
-0.00042779239
0.75024835
-0.0004655961
0.75028764
-0.00050391826
0.75033049
-0.0005419285
0.75037823
-0.00058113902
0.75042853
-0.00061879407
0.75048379
-0.00065687079
0.75054217
-0.00069248011
0.75060474
-0.00072687248
0.75067068
-0.00075884088
0.75073909
-0.00078712683
0.7508114
-0.0008122478
0.75088534
-0.00083230721
0.75096034
-0.00084663391
0.75103752
-0.00085642308
0.75111369
-0.00085816536
0.75118973
-0.00085449128
0.75126403
-0.00084338535
0.75133502
-0.00082484197
0.75140181
-0.00079970669
0.75146475
-0.00076907456
0.75152126
-0.00073184593
0.75157238
-0.00069070366
0.75161636
-0.00064610753
0.75165291
-0.00059930061
0.7516832
-0.00055163519
0.75170562
-0.0005038351
0.75172167
-0.00045888808
0.75173177
-0.00041601455
0.7517365
-0.00037733265
0.75173598
-0.00034244432
0.75173224
-0.00031379226
0.75172481
-0.00028997928
0.75171494
-0.00027240095
0.75170324
-0.00025989672
0.75169033
-0.00025420571
0.75167687
-0.00025334144
0.75166347
-0.00025758481
0.75165119
-0.00026714797
0.75163973
-0.00028107529
0.75162923
-0.00029914101
0.75161917
-0.00032063364
0.75161145
-0.00034725837
0.75160448
-0.00037645695
0.7515998
-0.00040976833
0.7515966
-0.00044627124
0.75159637
-0.00048565274
0.75159855
-0.00052708461
0.75160362
-0.00057230298
0.75161013
-0.00061896447
0.75161856
-0.00066843514
0.75162897
-0.0007214649
0.75164216
-0.00077753547
0.75165721
-0.00083546027
0.75167603
-0.0008982054
0.75169625
-0.00096215657
0.75171954
-0.0010303547
0.75174519
-0.001101079
0.75177255
-0.0011750638
0.7518035
-0.0012530215
0.75183586
-0.0013333024
0.75187231
-0.0014184598
0.75191076
-0.0015062971
0.7519532
-0.0015994549
0.75199909
-0.0016963584
0.75204894
-0.0017978328
0.75210081
-0.0019033976
0.75215638
-0.0020150015
0.75221511
-0.0021309295
0.75227718
-0.0022519492
0.75234291
-0.0023781933
0.75241264
-0.0025098138
0.75248657
-0.002646972
0.75256485
-0.0027898242
0.75264747
-0.0029385331
0.75273447
-0.003093196
0.75282582
-0.0032539602
0.75292154
-0.0034208637
0.75302168
-0.0035939609
0.75312626
-0.0037731855
0.75323492
-0.0039585084
0.7533468
-0.0041497013
0.75346165
-0.0043479502
0.75358162
-0.0045490892
0.75371081
-0.0047696132
0.75384904
-0.0049441183
-0.0053228882
0.75000129
-1.4772996e-05
0.75000352
-4.4037605e-05
0.75000763
-7.4579301e-05
0.75001367
-0.00010503113
0.75002232
-0.00013672268
0.75003186
-0.00016791269
0.7500448
-0.00020168666
0.75005947
-0.00023453444
0.75007719
-0.00027014229
0.75009751
-0.00030557805
0.75011996
-0.00034208519
0.75014649
-0.00038087635
0.75017546
-0.00041952512
0.75020763
-0.00045976339
0.75024321
-0.00050087175
0.75028298
-0.0005432736
0.75032652
-0.00058493109
0.75037399
-0.00062793601
0.75042611
-0.00067010353
0.75048173
-0.00071156815
0.75054205
-0.00075178654
0.75060637
-0.00079013637
0.75067452
-0.00082592305
0.75074681
-0.00085838793
0.75082167
-0.00088612348
0.75089922
-0.00090890515
0.75098004
-0.00092652861
0.75106099
-0.00093645176
0.75114298
-0.00093923937
0.75122376
-0.00093439766
0.7513022
-0.00092102687
0.7513784
-0.00090029021
0.75145066
-0.00087124357
0.75151678
-0.00083443221
0.7515776
-0.00079186622
0.75163049
-0.00074279585
0.75167607
-0.00069092
0.75171402
-0.00063652822
0.75174306
-0.00057999945
0.75176515
-0.00052527403
0.75177943
-0.00047254512
0.75178648
-0.00042244714
0.7517877
-0.00037787438
0.75178402
-0.00033793762