/*--------------------------------*- C++ -*----------------------------------*\
| =========                 |                                                 |
| \\      /  F ield         | OpenFOAM: The Open Source CFD Toolbox           |
|  \\    /   O peration     | Version:  2406                                  |
|   \\  /    A nd           | Website:  www.openfoam.com                      |
|    \\/     M anipulation  |                                                 |
\*---------------------------------------------------------------------------*/
FoamFile
{
    version     2.0;
    format      ascii;
    arch        "LSB;label=32;scalar=64";
    class       volVectorField;
    location    "400";
    object      U;
}
// * * * * * * * * * * * * * * * * * * * * * * * * * * * * * * * * * * * * * //

dimensions      [0 1 -1 0 0 0 0];

internalField   nonuniform List<vector> 
16045
(
(30.000019 -3.0933874e-05 0)
(30.000133 -0.00011076016 0)
(30.000336 -0.00021261653 0)
(30.000638 -0.0003300198 0)
(30.001036 -0.0004607418 0)
(30.001524 -0.00060489756 0)
(30.0021 -0.00076199606 -7.9924041e-25)
(30.002769 -0.0009310814 0)
(30.003538 -0.0011116385 0)
(30.004415 -0.001303427 0)
(30.005404 -0.0015062881 0)
(30.006504 -0.001719919 0)
(30.007706 -0.0019439929 6.6752806e-25)
(30.009005 -0.0021780169 0)
(30.010398 -0.0024214341 0)
(30.011888 -0.0026734881 0)
(30.013477 -0.0029333547 0)
(30.015166 -0.0031999812 -2.322429e-25)
(30.016951 -0.0034722664 -2.1557895e-25)
(30.01883 -0.0037487388 0)
(30.020796 -0.0040279099 0)
(30.022838 -0.0043078854 0)
(30.024941 -0.0045869782 0)
(30.027089 -0.0048631471 0)
(30.029265 -0.0051346167 1.532914e-25)
(30.031457 -0.0053991558 0)
(30.033652 -0.0056549035 4.8092454e-26)
(30.035836 -0.0058997729 1.2465207e-27)
(30.037997 -0.0061323342 -1.0189593e-26)
(30.040127 -0.0063510127 1.9953891e-27)
(30.042218 -0.0065550093 1.9417084e-26)
(30.044255 -0.006743043 2.9270001e-27)
(30.046212 -0.0069148932 -1.4149495e-26)
(30.048055 -0.0070711134 2.9100012e-25)
(30.049763 -0.0072135469 -2.180884e-26)
(30.051346 -0.0073425836 -2.1792635e-27)
(30.052835 -0.007459057 2.3985524e-26)
(30.054244 -0.0075652353 0)
(30.055541 -0.0076664782 2.9683982e-26)
(30.056679 -0.0077658696 4.5871263e-25)
(30.057646 -0.0078640293 0)
(30.058477 -0.0079609237 0)
(30.059206 -0.0080624826 5.3879983e-25)
(30.059833 -0.0081779601 0)
(30.06035 -0.008315139 5.5783489e-25)
(30.060793 -0.0084729084 0)
(30.061232 -0.008646847 0)
(30.061692 -0.008834505 0)
(30.062111 -0.0090434423 0)
(30.062375 -0.0092853608 0)
(30.062437 -0.0095699463 0)
(30.062394 -0.0098968233 0)
(30.062435 -0.010259905 0)
(30.062706 -0.010651561 0)
(30.063193 -0.011072886 0)
(30.063734 -0.011530219 0)
(30.064147 -0.012034287 0)
(30.064366 -0.012590901 -5.3213227e-25)
(30.06449 -0.013201411 0)
(30.064712 -0.013861297 0)
(30.065187 -0.014567791 0)
(30.065938 -0.015319416 0)
(30.066862 -0.01612069 0)
(30.067805 -0.01697556 0)
(30.068669 -0.017889131 0)
(30.069466 -0.018862237 0)
(30.0703 -0.019896363 -4.6224698e-25)
(30.071307 -0.020991183 0)
(30.072572 -0.022150434 0)
(30.074096 -0.023377031 0)
(30.075802 -0.024677056 0)
(30.077589 -0.026053678 0)
(30.079386 -0.027511974 0)
(30.081182 -0.029053461 0)
(30.083027 -0.030681047 0)
(30.085011 -0.032395079 0)
(30.087218 -0.034200333 0)
(30.089689 -0.036101388 0)
(30.092404 -0.038107821 0)
(30.09531 -0.040226717 0)
(30.098354 -0.042467701 0)
(30.101511 -0.044836868 0)
(30.104792 -0.047342519 0)
(30.108237 -0.049991471 0)
(30.111888 -0.052797605 0)
(30.11576 -0.055771779 0)
(30.119835 -0.058923962 0)
(30.124088 -0.062260554 0)
(30.128517 -0.065795487 0)
(30.133126 -0.069545307 0)
(30.137885 -0.073527363 0)
(30.142762 -0.077753193 0)
(30.1477 -0.082231332 0)
(30.152709 -0.086964335 0)
(30.157541 -0.091931415 0)
(30.162498 -0.097129991 0)
(30.166428 -0.1024059 0)
(30.171989 -0.10792449 0)
(30.173007 -0.11200902 0)
(30.185915 -0.11927637 0)
(30.00001 -9.0152274e-05 0)
(30.000091 -0.00029198545 0)
(30.000265 -0.00051973353 -8.4364423e-25)
(30.000543 -0.00076441918 0)
(30.00092 -0.0010247638 0)
(30.001386 -0.0013020145 0)
(30.001942 -0.0015950604 7.9918684e-25)
(30.002592 -0.0019019885 0)
(30.003343 -0.002221988 7.720592e-25)
(30.004202 -0.0025549958 0)
(30.005174 -0.0029008634 0)
(30.006257 -0.0032591292 0)
(30.007443 -0.0036290279 -6.6747344e-25)
(30.008726 -0.0040095147 0)
(30.010105 -0.0043992174 0)
(30.011582 -0.0047964817 0)
(30.01316 -0.0051993604 -7.9547798e-25)
(30.014839 -0.0056056746 2.575965e-25)
(30.016618 -0.0060128782 4.4776152e-25)
(30.018492 -0.0064179955 -4.0966614e-25)
(30.020455 -0.0068176392 0)
(30.022499 -0.0072082125 0)
(30.024606 -0.0075861576 5.2468457e-25)
(30.026761 -0.0079478672 2.1067781e-25)
(30.028948 -0.0082896185 -1.5327463e-25)
(30.031155 -0.0086074963 0)
(30.033367 -0.0088979122 -4.9333604e-26)
(30.035572 -0.0091578067 0)
(30.037756 -0.009384734 0)
(30.039911 -0.009576825 0)
(30.042029 -0.0097326553 -4.3867367e-26)
(30.044094 -0.009850827 4.3864166e-26)
(30.04608 -0.0099321053 0)
(30.047949 -0.0099808269 -2.1349279e-25)
(30.049682 -0.010001451 -7.7472872e-26)
(30.051288 -0.0099940681 0)
(30.052798 -0.0099590975 -5.2201141e-26)
(30.054222 -0.0099053154 -3.9348565e-27)
(30.055527 -0.0098468081 5.6131292e-26)
(30.056669 -0.0097889772 4.6149396e-27)
(30.057641 -0.0097257987 0)
(30.058472 -0.0096553435 0)
(30.059187 -0.0095950857 5.1927198e-27)
(30.059787 -0.0095729411 0)
(30.060272 -0.0096018856 -5.578015e-25)
(30.060688 -0.0096670154 0)
(30.061105 -0.0097434905 5.7414399e-25)
(30.06154 -0.009825972 0)
(30.061917 -0.009941086 0)
(30.062122 -0.0101275 -5.8081504e-25)
(30.062117 -0.010404548 5.6971543e-25)
(30.062013 -0.010757103 0)
(30.062005 -0.011150069 0)
(30.062232 -0.011557357 0)
(30.062669 -0.011982801 -2.7422739e-25)
(30.063148 -0.012454594 -2.766809e-25)
(30.063484 -0.013004846 0)
(30.06362 -0.013647858 5.3211438e-25)
(30.063665 -0.014374914 0)
(30.063815 -0.015164539 0)
(30.064221 -0.01599956 0)
(30.064902 -0.016876984 -4.8921943e-25)
(30.065748 -0.017807483 0)
(30.066607 -0.018804057 0)
(30.067383 -0.019874137 0)
(30.06809 -0.021015917 0)
(30.068836 -0.022224035 4.6222958e-25)
(30.069751 -0.023496329 0)
(30.07092 -0.024838826 0)
(30.072341 -0.026262795 0)
(30.073937 -0.027779725 -4.4885101e-25)
(30.07561 -0.029395694 0)
(30.077287 -0.031112471 0)
(30.078962 -0.032927138 0)
(30.080685 -0.034834257 0)
(30.082544 -0.036828167 0)
(30.08462 -0.038911055 0)
(30.08695 -0.041094251 0)
(30.089512 -0.043394017 0)
(30.092254 -0.045824203 0)
(30.095123 -0.048396012 0)
(30.098097 -0.051116272 0)
(30.101184 -0.053989616 0)
(30.104422 -0.057021216 0)
(30.107848 -0.060224349 0)
(30.111483 -0.063611406 0)
(30.11531 -0.067183631 0)
(30.119304 -0.070935083 0)
(30.123454 -0.074873064 0)
(30.127761 -0.079017318 0)
(30.132201 -0.083386964 0)
(30.136748 -0.087982183 0)
(30.141355 -0.092797154 0)
(30.146053 -0.097800405 0)
(30.150617 -0.10293876 0)
(30.155389 -0.10816735 0)
(30.159349 -0.11329737 0)
(30.165382 -0.11846331 0)
(30.167624 -0.12219801 0)
(30.180336 -0.12963885 0)
(30.000008 -0.00014171805 0)
(30.000083 -0.00042793122 0)
(30.000253 -0.00072363844 8.4363717e-25)
(30.00053 -0.0010296282 0)
(30.000903 -0.0013479715 0)
(30.001365 -0.0016797297 0)
(30.001918 -0.002023768 3.9989373e-25)
(30.002566 -0.002378671 -3.998794e-25)
(30.003315 -0.0027442246 -7.7203793e-25)
(30.004172 -0.0031209465 0)
(30.005142 -0.0035090297 0)
(30.006224 -0.003908171 0)
(30.007409 -0.0043174922 6.8171568e-25)
(30.008693 -0.0047357233 0)
(30.010074 -0.0051610919 0)
(30.011554 -0.0055915316 3.0360123e-25)
(30.013138 -0.0060245807 8.1746786e-25)
(30.014825 -0.0064575401 0)
(30.016613 -0.0068871029 -4.6220417e-25)
(30.0185 -0.007309542 4.0963919e-25)
(30.02048 -0.0077205789 -1.6978502e-25)
(30.022542 -0.0081160767 3.4455043e-25)
(30.024672 -0.0084918407 1.5656968e-25)
(30.026852 -0.0088437563 2.2141886e-25)
(30.029067 -0.009167061 0)
(30.031304 -0.0094571628 2.1960234e-25)
(30.03355 -0.0097100792 0)
(30.035789 -0.0099231794 6.1786712e-27)
(30.03801 -0.01009409 0)
(30.040201 -0.010220688 -2.6811639e-25)
(30.042356 -0.010300376 -8.9001905e-26)
(30.044459 -0.010332721 0)
(30.046477 -0.010322319 -6.8274522e-26)
(30.048375 -0.010277737 6.8270216e-26)
(30.050133 -0.010202219 0)
(30.051766 -0.010092434 -3.7466937e-25)
(30.053298 -0.0099503622 -1.0616891e-25)
(30.054731 -0.0097937981 1.0616455e-25)
(30.056036 -0.0096419306 0)
(30.057182 -0.0094951262 6.2452448e-27)
(30.058165 -0.0093387937 5.2041988e-25)
(30.058999 -0.0091753971 -5.3735792e-25)
(30.059693 -0.0090391573 -5.4393413e-25)
(30.060251 -0.0089698744 1.1180913e-24)
(30.060702 -0.0089695978 5.6568561e-25)
(30.061113 -0.0089985562 0)
(30.061543 -0.0090164671 5.8562265e-25)
(30.061979 -0.0090320791 -5.866333e-25)
(30.062319 -0.009103585 -2.9234504e-25)
(30.062456 -0.0092922161 8.7314452e-25)
(30.062388 -0.0096087125 -5.6970531e-25)
(30.062257 -0.010005086 0)
(30.062261 -0.010413003 0)
(30.062515 -0.010799219 0)
(30.062958 -0.011186563 0)
(30.063407 -0.011634731 2.7657923e-25)
(30.063688 -0.01219406 5.6436616e-27)
(30.063771 -0.012875541 7.9486999e-25)
(30.063786 -0.013649874 0)
(30.063931 -0.014475888 0)
(30.064346 -0.015328187 0)
(30.065032 -0.016211488 4.8920532e-25)
(30.065871 -0.017147951 -4.8817688e-25)
(30.066714 -0.018158593 0)
(30.067473 -0.019246549 -4.7848563e-25)
(30.068171 -0.020400436 0)
(30.068915 -0.021605162 0)
(30.069828 -0.02285928 0)
(30.070986 -0.024177531 0)
(30.072384 -0.02558541 0)
(30.073951 -0.027102464 4.4882404e-25)
(30.075593 -0.028735659 0)
(30.077247 -0.03047741 -4.3638092e-25)
(30.078908 -0.032313644 0)
(30.080629 -0.034226433 0)
(30.082492 -0.036204743 0)
(30.084568 -0.038251743 0)
(30.086886 -0.040388712 0)
(30.089424 -0.042639731 0)
(30.092134 -0.045024794 0)
(30.094968 -0.047554627 0)
(30.097907 -0.050234436 0)
(30.100963 -0.053065637 0)
(30.104169 -0.056053124 0)
(30.107562 -0.059204991 0)
(30.111167 -0.062531402 0)
(30.11498 -0.06602716 0)
(30.118972 -0.069678045 0)
(30.123121 -0.073481792 0)
(30.127418 -0.077456771 0)
(30.131853 -0.0816263 0)
(30.136413 -0.085999158 0)
(30.141068 -0.090570608 0)
(30.145863 -0.095312414 0)
(30.150582 -0.10017094 0)
(30.155566 -0.10512001 0)
(30.159797 -0.11000591 0)
(30.165899 -0.11521488 0)
(30.16781 -0.11933742 0)
(30.179656 -0.1283715 0)
(30.000008 -0.0001864608 0)
(30.000078 -0.00055780046 0)
(30.000238 -0.00093929964 0)
(30.000501 -0.0013354068 0)
(30.000859 -0.0017466798 0)
(30.001307 -0.0021726797 0)
(30.001846 -0.0026129701 0)
(30.00248 -0.0030669996 0)
(30.003214 -0.0035347892 0)
(30.004057 -0.0040167217 0)
(30.005012 -0.0045128676 0)
(30.00608 -0.0050226644 0)
(30.007252 -0.0055449061 -1.0373004e-24)
(30.008524 -0.0060778045 -3.3564064e-25)
(30.009895 -0.0066190495 0)
(30.011369 -0.0071659008 -1.7692973e-24)
(30.012947 -0.0077151855 5.5522329e-25)
(30.014631 -0.0082631848 -1.2738273e-24)
(30.016421 -0.0088054665 7.0652749e-25)
(30.018313 -0.0093369537 0)
(30.020302 -0.0098522733 7.5548091e-25)
(30.022377 -0.010346105 -3.1943752e-25)
(30.024524 -0.010813104 -5.365141e-25)
(30.026726 -0.011247385 1.3393248e-26)
(30.028968 -0.011642374 0)
(30.031236 -0.011991742 -2.6268435e-25)
(30.033516 -0.012290642 1.6311848e-25)
(30.035792 -0.01253573 -6.1781997e-27)
(30.038052 -0.012723798 0)
(30.040287 -0.012850316 -2.506492e-28)
(30.042487 -0.012911166 1.5330345e-25)
(30.044632 -0.012908164 1.1375066e-25)
(30.046686 -0.012850858 3.9668156e-25)
(30.048614 -0.012747922 0)
(30.050406 -0.012598405 0)
(30.052073 -0.012398716 3.7464517e-25)
(30.053628 -0.01215891 0)
(30.055066 -0.011902576 -1.1522125e-25)
(30.056369 -0.011645408 1.1521752e-25)
(30.057522 -0.011381727 -4.9916662e-25)
(30.058515 -0.011103941 9.6379069e-27)
(30.059336 -0.010833012 -5.5594063e-25)
(30.059982 -0.010615086 1.1161173e-24)
(30.060477 -0.010478844 1.3416122e-26)
(30.060889 -0.010402171 5.7903092e-25)
(30.061299 -0.010332474 1.1601353e-24)
(30.061737 -0.010246407 1.7175387e-26)
(30.062138 -0.010186409 5.8662739e-25)
(30.062382 -0.01023368 -1.1856895e-24)
(30.062395 -0.010440883 0)
(30.06223 -0.01078682 0)
(30.062062 -0.011193136 -1.1122592e-24)
(30.062077 -0.011587299 0)
(30.062336 -0.011957253 0)
(30.062737 -0.012356111 0)
(30.063089 -0.01285837 0)
(30.063248 -0.013506616 0)
(30.063223 -0.014288293 -5.2622762e-25)
(30.063167 -0.015154664 -1.2537302e-24)
(30.063272 -0.016060597 7.3700781e-25)
(30.063651 -0.016994407 -4.8304566e-25)
(30.064285 -0.017978488 -4.831046e-25)
(30.065048 -0.019045954 4.8817975e-25)
(30.065806 -0.020213374 0)
(30.066488 -0.021469935 5.4567374e-27)
(30.067125 -0.022787871 -4.6107782e-25)
(30.067815 -0.024145897 0)
(30.068665 -0.02554702 0)
(30.069737 -0.027019783 0)
(30.071025 -0.028602716 0)
(30.072468 -0.030323918 0)
(30.073988 -0.032188256 0)
(30.075534 -0.034178986 4.3637825e-25)
(30.077105 -0.036268735 -4.1865866e-25)
(30.078751 -0.038432924 0)
(30.08054 -0.040660762 0)
(30.082529 -0.04296202 0)
(30.084736 -0.045362737 0)
(30.087141 -0.04789254 0)
(30.089702 -0.050573544 0)
(30.09238 -0.053417221 0)
(30.095159 -0.056426643 0)
(30.098051 -0.059604463 0)
(30.101084 -0.062956442 0)
(30.104294 -0.066488056 0)
(30.107713 -0.070204409 0)
(30.111344 -0.07410397 0)
(30.115159 -0.078174244 0)
(30.119122 -0.082405489 0)
(30.123211 -0.086803475 0)
(30.127412 -0.091392764 0)
(30.131722 -0.096199215 0)
(30.136126 -0.10122501 0)
(30.140691 -0.10645312 0)
(30.145211 -0.11183137 0)
(30.150036 -0.1173234 0)
(30.154097 -0.12278464 0)
(30.160178 -0.12855249 0)
(30.162202 -0.13308169 0)
(30.17517 -0.14218324 0)
(30.000007 -0.00022869542 0)
(30.000073 -0.00068325168 0)
(30.000227 -0.0011454873 0)
(30.000484 -0.0016192208 0)
(30.000836 -0.0021050675 0)
(30.001277 -0.0026033582 -8.4144354e-25)
(30.001809 -0.0031148866 0)
(30.002436 -0.0036398248 0)
(30.003164 -0.0041782163 0)
(30.004 -0.0047302332 7.7794455e-25)
(30.00495 -0.0052957914 -7.5536575e-25)
(30.006012 -0.0058742153 1.4599962e-24)
(30.007181 -0.0064641214 6.9124485e-25)
(30.008451 -0.0070634681 0)
(30.009823 -0.0076696118 6.391751e-25)
(30.0113 -0.0082793691 8.9660147e-25)
(30.012886 -0.0088889212 -5.3558659e-25)
(30.014582 -0.0094936849 2.349846e-24)
(30.016387 -0.010088233 9.6375564e-25)
(30.018299 -0.010666552 6.6856129e-25)
(30.020314 -0.011222411 -5.5257084e-25)
(30.022419 -0.011749573 6.7234256e-25)
(30.024602 -0.012241341 0)
(30.026845 -0.012690181 -4.4540832e-25)
(30.029134 -0.013088044 3.4919078e-25)
(30.031455 -0.013427706 -4.759537e-25)
(30.033791 -0.013703621 -1.2001334e-25)
(30.036127 -0.013911649 0)
(30.03845 -0.014047109 0)
(30.040752 -0.014104133 -3.2647118e-27)
(30.04302 -0.014079869 4.0783535e-25)
(30.045226 -0.013980031 -2.085651e-25)
(30.047332 -0.013815227 -9.1584712e-25)
(30.049312 -0.013590763 -4.7115966e-25)
(30.051157 -0.013305677 3.4678638e-25)
(30.052871 -0.012965 1.9125383e-26)
(30.054457 -0.012586018 -2.0280411e-25)
(30.055912 -0.012186804 -4.6293589e-25)
(30.057231 -0.011772477 0)
(30.058402 -0.011342946 5.2048188e-25)
(30.0594 -0.010915604 5.5413783e-25)
(30.060193 -0.010530715 2.2083293e-24)
(30.060785 -0.010222755 -1.1160623e-24)
(30.061235 -0.0099864586 1.809999e-26)
(30.061642 -0.0097792599 -3.4729159e-24)
(30.062072 -0.0095675375 2.1130451e-26)
(30.062506 -0.0093722981 -1.1768731e-24)
(30.062844 -0.0092654779 1.202774e-24)
(30.062975 -0.0093146714 1.1856587e-24)
(30.062877 -0.0095264683 0)
(30.062659 -0.0098387557 1.1404387e-24)
(30.062504 -0.01017037 2.2302564e-24)
(30.062556 -0.010484117 1.1088674e-24)
(30.062824 -0.010812604 1.1100842e-24)
(30.063177 -0.011228965 0)
(30.063437 -0.011790315 0)
(30.063507 -0.012498428 -1.073493e-24)
(30.063431 -0.013305654 0)
(30.063366 -0.014154692 1.005589e-24)
(30.06348 -0.015020586 -4.8888909e-25)
(30.063856 -0.015923027 4.830347e-25)
(30.064458 -0.016906438 4.8309273e-25)
(30.065173 -0.018005259 -4.7847333e-25)
(30.065888 -0.019220367 -4.7462542e-25)
(30.066553 -0.020520094 4.73015e-25)
(30.0672 -0.021863211 5.3688198e-27)
(30.067908 -0.023226665 0)
(30.068762 -0.024620805 -4.3602039e-25)
(30.069806 -0.026082784 0)
(30.071035 -0.027657564 0)
(30.072408 -0.029375353 0)
(30.073867 -0.03123949 0)
(30.075377 -0.033228488 0)
(30.076939 -0.035311348 4.1863295e-25)
(30.078592 -0.037464494 -4.0130472e-25)
(30.080389 -0.03968171 0)
(30.082372 -0.041973659 0)
(30.084553 -0.044363035 0)
(30.086913 -0.046875209 0)
(30.089418 -0.049530524 0)
(30.092038 -0.05233963 0)
(30.094761 -0.055306608 0)
(30.097597 -0.058433763 0)
(30.100576 -0.061724462 0)
(30.103736 -0.065180214 0)
(30.107108 -0.068804311 0)
(30.110703 -0.072601771 0)
(30.1145 -0.076566882 0)
(30.11846 -0.080682321 0)
(30.122548 -0.084936871 0)
(30.126734 -0.089344318 0)
(30.131028 -0.093928777 0)
(30.135435 -0.09869307 0)
(30.14004 -0.10362152 0)
(30.144665 -0.10867958 0)
(30.149645 -0.11384271 0)
(30.153974 -0.11897127 0)
(30.160193 -0.12439152 0)
(30.162545 -0.12861769 0)
(30.174008 -0.13773807 0)
(30.000007 -0.00026908512 0)
(30.000071 -0.00080368091 0)
(30.000221 -0.0013442664 0)
(30.00047 -0.0018965627 0)
(30.000812 -0.002463083 0)
(30.001241 -0.0030443527 8.4142982e-25)
(30.00176 -0.0036409498 -8.4046808e-25)
(30.002375 -0.0042530394 8.2615743e-25)
(30.00309 -0.0048806917 0)
(30.003912 -0.0055240558 -7.7792246e-25)
(30.004849 -0.0061830722 1.5229181e-24)
(30.005899 -0.0068570883 -2.9447976e-24)
(30.007057 -0.007544687 0)
(30.008319 -0.0082436776 -1.6999659e-24)
(30.009685 -0.0089511219 -6.2222428e-25)
(30.011158 -0.0096633021 3.138674e-25)
(30.012744 -0.010375638 0)
(30.014444 -0.011082606 2.490874e-26)
(30.01626 -0.011777839 -1.1960338e-24)
(30.018187 -0.012454378 2.5549235e-25)
(30.020222 -0.013104949 -1.5918587e-24)
(30.022355 -0.01372185 -9.871117e-25)
(30.02457 -0.014296578 1.4855164e-24)
(30.026854 -0.01481976 0)
(30.029191 -0.01528194 -9.9900884e-25)
(30.031564 -0.015674585 4.0085393e-25)
(30.033958 -0.015990632 2.6631347e-25)
(30.036356 -0.016223892 -1.9467085e-26)
(30.038747 -0.016367863 -5.6289121e-26)
(30.041119 -0.016417017 -8.6634483e-27)
(30.043455 -0.016371227 -4.4770492e-25)
(30.045723 -0.016236408 -2.3825598e-25)
(30.047886 -0.016018624 1.0106519e-24)
(30.049921 -0.015721235 5.9550195e-25)
(30.051817 -0.015351506 0)
(30.053569 -0.014924948 -2.0745825e-25)
(30.05518 -0.014456759 2.0745111e-25)
(30.056656 -0.013951859 9.3966199e-25)
(30.057993 -0.01341305 0)
(30.059166 -0.012861872 -2.5201014e-25)
(30.060132 -0.012342638 -2.464237e-24)
(30.060864 -0.011895023 2.4912721e-26)
(30.061397 -0.011521135 0)
(30.06182 -0.011185323 2.4531905e-26)
(30.062225 -0.010854849 -5.2033512e-26)
(30.062639 -0.010544595 -1.4806696e-24)
(30.063003 -0.010320134 2.9947631e-25)
(30.063216 -0.010251518 -1.2027543e-24)
(30.063211 -0.010356652 0)
(30.063022 -0.010584155 2.3510692e-24)
(30.062775 -0.010853087 -1.1404329e-24)
(30.062626 -0.011116345 -3.3766208e-24)
(30.062664 -0.011397131 -1.1088667e-24)
(30.062859 -0.011770382 -1.110085e-24)
(30.06309 -0.012305754 0)
(30.063223 -0.013017154 1.0931959e-24)
(30.063203 -0.013855222 2.1385878e-24)
(30.063088 -0.014744794 0)
(30.063012 -0.015637877 9.9619176e-25)
(30.063103 -0.016542508 0)
(30.063417 -0.017511431 0)
(30.06392 -0.018602905 -4.7457552e-25)
(30.064526 -0.019843792 4.7847443e-25)
(30.065153 -0.021217254 7.8489074e-27)
(30.065768 -0.022678011 -4.5917351e-25)
(30.066392 -0.024181882 4.5569184e-25)
(30.067082 -0.025710239 -4.3997722e-25)
(30.067895 -0.027276558 4.360181e-25)
(30.068863 -0.028916319 -4.2553893e-25)
(30.069986 -0.030668657 0)
(30.071238 -0.03256041 -4.1724588e-25)
(30.072585 -0.034597011 0)
(30.074004 -0.036764655 0)
(30.075495 -0.039041662 0)
(30.077088 -0.041412471 4.0129857e-25)
(30.078824 -0.043873775 -3.856535e-25)
(30.080733 -0.046432835 0)
(30.082824 -0.049103533 0)
(30.085077 -0.051902282 0)
(30.087464 -0.054843257 0)
(30.089958 -0.057936434 0)
(30.092552 -0.061188899 0)
(30.095256 -0.064606 0)
(30.098102 -0.068192268 0)
(30.101125 -0.071952641 0)
(30.104353 -0.07589406 0)
(30.107798 -0.08002597 0)
(30.111452 -0.084349805 0)
(30.115281 -0.088852389 0)
(30.119241 -0.093520849 0)
(30.123285 -0.098357865 0)
(30.127422 -0.1033728 0)
(30.131671 -0.10856745 0)
(30.136125 -0.11394101 0)
(30.140607 -0.11948635 0)
(30.145471 -0.12521524 0)
(30.149681 -0.13099531 0)
(30.155893 -0.13721377 0)
(30.158063 -0.14214879 0)
(30.170589 -0.15250252 0)
(30.000007 -0.000308157 0)
(30.000069 -0.00092009547 0)
(30.000214 -0.0015376141 0)
(30.000455 -0.0021673653 -8.8227113e-25)
(30.000787 -0.0028119377 0)
(30.001207 -0.0034710598 -8.6495691e-25)
(30.001716 -0.0041449041 8.4045163e-25)
(30.002321 -0.004833898 -8.2613955e-25)
(30.003026 -0.0055385958 0)
(30.003839 -0.006259515 0)
(30.004767 -0.0069968207 -7.6755244e-25)
(30.005808 -0.0077499719 2.6299617e-24)
(30.00696 -0.0085175307 -1.0901312e-24)
(30.008218 -0.0092971227 1.0316313e-24)
(30.009582 -0.010085413 1.3495386e-24)
(30.011059 -0.010878066 3.2045212e-25)
(30.012652 -0.011669723 0)
(30.014366 -0.012454015 -1.0754805e-24)
(30.0162 -0.013223674 0)
(30.018154 -0.013970719 -6.803844e-25)
(30.020222 -0.01468653 1.000326e-24)
(30.022395 -0.015361697 -1.0525548e-24)
(30.024659 -0.015985869 3.092864e-25)
(30.027 -0.016548011 -4.8187036e-25)
(30.029402 -0.017037053 1.6906004e-24)
(30.031849 -0.017442736 -4.2047607e-25)
(30.034323 -0.017756035 -3.6327401e-25)
(30.036807 -0.017968682 -2.0165172e-26)
(30.039288 -0.018073297 2.0163389e-26)
(30.041754 -0.018065899 8.5961104e-25)
(30.04418 -0.01794733 0)
(30.046535 -0.017720231 0)
(30.048784 -0.01738719 5.7710125e-25)
(30.050897 -0.016956002 -3.4603399e-25)
(30.052857 -0.016443606 7.2150843e-25)
(30.054662 -0.015867727 0)
(30.056321 -0.015235052 0)
(30.057844 -0.014546916 -9.7089539e-25)
(30.059211 -0.013821924 2.6540385e-25)
(30.060376 -0.013106064 -2.6540118e-25)
(30.061298 -0.012448705 2.2555776e-24)
(30.061982 -0.011864743 -1.1398969e-24)
(30.062493 -0.011325948 0)
(30.062921 -0.010797831 -1.1739558e-24)
(30.063321 -0.010288731 2.3801093e-24)
(30.063678 -0.0098615182 0)
(30.063927 -0.0095930179 2.4726034e-24)
(30.064008 -0.0095149519 0)
(30.06391 -0.0095869924 0)
(30.063696 -0.0097259472 -2.3510137e-24)
(30.063469 -0.0098681577 2.3273496e-24)
(30.063326 -0.010017399 1.9753234e-24)
(30.06331 -0.010242667 5.6415761e-25)
(30.063391 -0.010628932 1.9551305e-24)
(30.063488 -0.011217717 2.2082993e-24)
(30.063524 -0.011979411 -1.0931796e-24)
(30.063475 -0.012834353 -1.0650755e-24)
(30.063384 -0.013705453 1.0257485e-24)
(30.063339 -0.014565076 -1.1501672e-27)
(30.063425 -0.015445797 0)
(30.063682 -0.01641203 0)
(30.064096 -0.01751684 4.7456537e-25)
(30.064616 -0.018773393 0)
(30.06519 -0.020156057 8.1963725e-27)
(30.06579 -0.021622876 1.3619889e-24)
(30.066427 -0.023140747 -4.4297734e-25)
(30.067131 -0.024698417 4.3996307e-25)
(30.067942 -0.026305225 0)
(30.068883 -0.027981934 5.4440566e-27)
(30.069957 -0.029751594 -4.1488692e-25)
(30.071149 -0.031632986 4.1722734e-25)
(30.072437 -0.03363698 0)
(30.073808 -0.0357649 0)
(30.075263 -0.038011126 0)
(30.076828 -0.0403701 0)
(30.078537 -0.042840719 3.8563064e-25)
(30.080416 -0.045426244 -3.7140302e-25)
(30.082471 -0.048131693 0)
(30.084682 -0.050961164 0)
(30.087021 -0.053917409 0)
(30.089463 -0.057004024 0)
(30.092001 -0.060228476 0)
(30.094648 -0.063601082 0)
(30.097433 -0.067133975 0)
(30.100392 -0.0708383 0)
(30.103554 -0.074721296 0)
(30.106933 -0.078786218 0)
(30.110529 -0.083033389 0)
(30.114314 -0.087457976 0)
(30.11824 -0.092055253 0)
(30.12226 -0.096819367 0)
(30.126383 -0.10173867 0)
(30.130625 -0.10680493 0)
(30.135073 -0.11202081 0)
(30.139562 -0.11738666 0)
(30.144441 -0.12292438 0)
(30.148743 -0.12852405 0)
(30.154969 -0.13456944 0)
(30.157402 -0.1393587 0)
(30.168837 -0.14954723 0)
(30.000007 -0.00034588323 0)
(30.000068 -0.0010324674 0)
(30.000208 -0.0017251701 -4.4570507e-25)
(30.000442 -0.0024305451 1.3279518e-24)
(30.000764 -0.0031511598 0)
(30.001173 -0.0038872222 8.6494276e-25)
(30.001671 -0.0046395511 8.6737718e-25)
(30.002264 -0.0054091608 0)
(30.002956 -0.0061970843 0)
(30.003755 -0.007004117 0)
(30.004668 -0.0078305294 -3.8809922e-25)
(30.005697 -0.0086757796 4.194454e-25)
(30.006837 -0.0095383328 1.4575965e-24)
(30.008085 -0.010415573 1.4298217e-24)
(30.009444 -0.011303768 1.7255692e-24)
(30.010919 -0.012198076 -3.281766e-25)
(30.012516 -0.013092558 0)
(30.014239 -0.013980165 0)
(30.016089 -0.014852724 0)
(30.018066 -0.015700994 1.4571974e-24)
(30.020165 -0.016514756 4.4194511e-25)
(30.022378 -0.017282831 2.5745742e-24)
(30.024692 -0.017993141 -8.747047e-25)
(30.027093 -0.018632887 1.2458221e-24)
(30.029564 -0.019189073 -9.7465189e-25)
(30.032089 -0.019649354 5.1742312e-25)
(30.034649 -0.02000244 5.8887944e-25)
(30.037226 -0.020238029 0)
(30.039805 -0.020348056 1.6029024e-25)
(30.04237 -0.020328442 -5.9672437e-25)
(30.044895 -0.02017817 -1.992971e-25)
(30.047348 -0.019897646 4.5517914e-25)
(30.049688 -0.019491875 -2.222393e-24)
(30.05188 -0.018974753 -3.0916041e-25)
(30.053904 -0.018364288 -7.7928023e-25)
(30.055765 -0.017671508 4.0381456e-25)
(30.057479 -0.016900887 0)
(30.059042 -0.016068532 2.3457667e-25)
(30.060413 -0.015216582 2.5955425e-25)
(30.061541 -0.014398575 0)
(30.062408 -0.013643969 1.2186116e-24)
(30.063055 -0.012939955 2.4154888e-24)
(30.063556 -0.012255959 2.4563599e-24)
(30.063969 -0.011591121 0)
(30.064305 -0.010997113 0)
(30.064536 -0.010551025 -2.5206711e-24)
(30.064628 -0.010300958 -2.4725372e-24)
(30.064576 -0.010230879 0)
(30.064411 -0.01027398 0)
(30.064186 -0.010362143 2.407117e-24)
(30.063954 -0.010473344 -2.3273277e-24)
(30.063761 -0.010645038 2.3169762e-24)
(30.063628 -0.010947297 2.275255e-24)
(30.063549 -0.011436153 2.7676043e-25)
(30.063497 -0.012118238 -2.2131672e-24)
(30.06344 -0.012947588 -2.7193226e-25)
(30.063363 -0.01385493 0)
(30.06328 -0.014788948 -1.0257499e-24)
(30.063234 -0.015742618 -9.950256e-25)
(30.063276 -0.016749924 0)
(30.063445 -0.017857998 9.4345953e-25)
(30.06375 -0.019096479 9.2688307e-25)
(30.064172 -0.020465448 9.1387558e-25)
(30.064672 -0.021944866 4.5856736e-25)
(30.065225 -0.023513731 -1.5643383e-26)
(30.065827 -0.02516114 1.3138266e-24)
(30.066499 -0.026885308 4.270172e-25)
(30.067271 -0.028687288 0)
(30.068164 -0.030567819 4.2007381e-25)
(30.06918 -0.03252959 4.148814e-25)
(30.070302 -0.03458051 0)
(30.071513 -0.036734212 0)
(30.072801 -0.039005547 0)
(30.074174 -0.041405839 0)
(30.075657 -0.043941712 0)
(30.077283 -0.046617338 0)
(30.07908 -0.049435002 3.7139339e-25)
(30.081054 -0.052393373 0)
(30.083188 -0.055486528 0)
(30.085453 -0.058706393 0)
(30.087821 -0.062049568 0)
(30.090276 -0.065521775 0)
(30.092828 -0.069138878 0)
(30.095506 -0.072921968 0)
(30.09835 -0.076890011 0)
(30.101395 -0.081052172 0)
(30.104659 -0.085408098 0)
(30.10814 -0.089955039 0)
(30.111811 -0.094693363 0)
(30.115626 -0.099626719 0)
(30.119546 -0.10475063 0)
(30.123582 -0.11005076 0)
(30.127742 -0.11551448 0)
(30.132106 -0.12113985 0)
(30.136506 -0.12691992 0)
(30.141296 -0.13288612 0)
(30.145499 -0.13893857 0)
(30.151698 -0.14554052 0)
(30.154033 -0.15082371 0)
(30.166136 -0.16201886 0)
(30.000006 -0.00038223328 0)
(30.000065 -0.0011411069 0)
(30.000201 -0.0019065614 9.158674e-25)
(30.000427 -0.0026854034 0)
(30.000739 -0.0034804112 0)
(30.001136 -0.004292153 8.9430335e-25)
(30.001622 -0.0051217217 -8.6736187e-25)
(30.002201 -0.0059702739 -1.7390781e-24)
(30.002879 -0.0068389566 0)
(30.003664 -0.0077286415 0)
(30.004563 -0.0086396417 0)
(30.005579 -0.0095714317 3.4640237e-26)
(30.006709 -0.010522432 0)
(30.007949 -0.011489885 1.501008e-24)
(30.009304 -0.012469824 -2.7297872e-24)
(30.01078 -0.013457084 -2.342245e-24)
(30.012383 -0.014445268 -3.1819454e-25)
(30.01412 -0.015426616 0)
(30.015991 -0.016391879 0)
(30.017998 -0.01733035 -1.4423539e-24)
(30.020137 -0.018230091 -4.5665629e-25)
(30.022401 -0.0190782 -4.5559457e-24)
(30.024777 -0.01986081 -2.6148145e-24)
(30.027251 -0.020563022 -1.024034e-24)
(30.029808 -0.021169416 3.3851459e-25)
(30.032429 -0.021665037 7.9668188e-25)
(30.035095 -0.022036004 -5.0191092e-25)
(30.037787 -0.022270102 -8.6897272e-26)
(30.040487 -0.022357852 0)
(30.043176 -0.022292776 0)
(30.045826 -0.022071246 3.1235386e-25)
(30.048401 -0.021694929 -1.1877579e-25)
(30.050854 -0.02117411 1.0495412e-24)
(30.053146 -0.020524673 1.3343946e-24)
(30.055261 -0.019759057 1.1482432e-24)
(30.057208 -0.018884232 4.2306917e-25)
(30.058994 -0.017914923 0)
(30.060595 -0.016888345 0)
(30.061961 -0.015857964 0)
(30.063058 -0.014865493 0)
(30.063899 -0.013918636 9.104037e-26)
(30.064538 -0.013001675 -2.4153145e-24)
(30.065032 -0.012112213 -2.4562003e-24)
(30.065401 -0.011287187 5.1494342e-24)
(30.065635 -0.010590472 0)
(30.065724 -0.010072024 7.6801176e-24)
(30.065681 -0.009735503 0)
(30.065538 -0.0095426362 -5.0579632e-24)
(30.065331 -0.0094471289 4.9812505e-24)
(30.065085 -0.0094279249 -7.2977855e-24)
(30.064814 -0.0094986166 0)
(30.06454 -0.0096919569 -2.3169361e-24)
(30.064289 -0.010036425 -2.275218e-24)
(30.064084 -0.010540104 -2.2359555e-24)
(30.063931 -0.011187614 2.1906234e-24)
(30.063815 -0.011949434 2.142972e-24)
(30.063716 -0.012796837 0)
(30.063626 -0.013715009 0)
(30.063562 -0.014706916 0)
(30.063562 -0.015785936 -1.9150811e-24)
(30.063673 -0.016962756 -9.901877e-27)
(30.063918 -0.018236737 -9.2686665e-25)
(30.064289 -0.019599222 -1.2394161e-26)
(30.06475 -0.021044868 8.8832553e-25)
(30.065266 -0.022579678 -8.8716051e-25)
(30.065832 -0.024216626 -1.5401617e-26)
(30.066469 -0.025963932 1.9995559e-25)
(30.067213 -0.027816429 6.2147501e-25)
(30.068088 -0.029758352 0)
(30.069089 -0.031774339 0)
(30.070193 -0.033859629 0)
(30.071373 -0.036024379 0)
(30.072615 -0.038288822 0)
(30.073931 -0.040675353 0)
(30.07535 -0.043201055 0)
(30.07691 -0.045876318 0)
(30.078643 -0.048705072 0)
(30.080561 -0.051683356 0)
(30.08265 -0.054800764 0)
(30.084881 -0.0580446 0)
(30.087216 -0.061407606 0)
(30.089633 -0.064893453 0)
(30.092131 -0.068518117 0)
(30.094739 -0.072304619 0)
(30.097502 -0.076274494 0)
(30.100464 -0.080439259 0)
(30.103652 -0.084799512 0)
(30.107062 -0.089351269 0)
(30.110664 -0.094092415 0)
(30.114413 -0.099024032 0)
(30.118278 -0.1041434 0)
(30.122273 -0.10944268 0)
(30.126408 -0.11491423 0)
(30.130758 -0.12055011 0)
(30.135156 -0.12633103 0)
(30.139929 -0.13227682 0)
(30.144137 -0.13828758 0)