# vtk DataFile Version 3.0
Time Step 56, Physical Time = 0.000560s, Residual = 5.71e-03
ASCII
DATASET UNSTRUCTURED_GRID
POINTS 5000 float
0.318712 0.385257 0.000000
-0.318712 0.385257 0.000000
-0.318712 -0.385257 0.000000
0.318712 -0.385257 0.000000
0.093691 0.491144 0.000000
-0.093691 0.491144 0.000000
-0.093691 -0.491144 0.000000
0.093691 -0.491144 0.000000
0.404508 0.293893 0.000000
-0.404508 0.293893 0.000000
-0.404508 -0.293893 0.000000
0.404508 -0.293893 0.000000
0.438153 0.240877 0.000000
-0.438153 0.240877 0.000000
-0.438153 -0.240877 0.000000
0.438153 -0.240877 0.000000
0.500000 0.000000 0.000000
-0.500000 -0.000000 0.000000
0.364484 0.342274 0.000000
-0.364484 0.342274 0.000000
-0.364484 -0.342274 0.000000
0.364484 -0.342274 0.000000
0.496057 0.062667 0.000000
-0.496057 0.062667 0.000000
-0.496057 -0.062667 0.000000
0.496057 -0.062667 0.000000
0.212890 0.452414 0.000000
-0.212890 0.452414 0.000000
-0.212890 -0.452414 0.000000
0.212890 -0.452414 0.000000
0.154508 0.475528 0.000000
-0.154508 0.475528 0.000000
-0.154508 -0.475528 0.000000
0.154508 -0.475528 0.000000
0.267913 0.422164 0.000000
-0.267913 0.422164 0.000000
-0.267913 -0.422164 0.000000
0.267913 -0.422164 0.000000
0.031395 0.499013 0.000000
-0.031395 0.499013 0.000000
-0.031395 -0.499013 0.000000
0.031395 -0.499013 0.000000
0.464888 0.184062 0.000000
-0.464888 0.184062 0.000000
-0.464888 -0.184062 0.000000
0.464888 -0.184062 0.000000
0.484292 0.124345 0.000000
-0.484292 0.124345 0.000000
-0.484292 -0.124345 0.000000
0.484292 -0.124345 0.000000
-0.031454 0.499951 0.000000
0.438977 0.241329 0.000000
-0.268417 0.422957 0.000000
0.365169 0.342917 0.000000
-0.496990 -0.062784 0.000000
0.319311 -0.385981 0.000000
0.405269 0.294445 0.000000
-0.093867 0.492067 0.000000
0.500940 -0.000000 0.000000
-0.213290 0.453264 0.000000
-0.154799 0.476422 0.000000
0.031454 0.499951 0.000000
0.465762 0.184408 0.000000
0.319311 0.385981 0.000000
0.365169 -0.342917 0.000000
0.405269 -0.294445 0.000000
-0.365169 0.342917 0.000000
-0.319311 0.385981 0.000000
0.268417 0.422957 0.000000
0.213290 0.453264 0.000000
-0.319311 -0.385981 0.000000
0.154799 -0.476422 0.000000
-0.485202 -0.124579 0.000000
0.154799 0.476422 0.000000
0.268417 -0.422957 0.000000
0.093867 0.492067 0.000000
-0.031454 -0.499951 0.000000
-0.500940 0.000000 0.000000
0.438977 -0.241329 0.000000
-0.438977 -0.241329 0.000000
0.093867 -0.492067 0.000000
-0.485202 0.124579 0.000000
0.485202 0.124579 0.000000
-0.496990 0.062784 0.000000
0.213290 -0.453264 0.000000
0.031454 -0.499951 0.000000
0.496990 -0.062784 0.000000
0.465762 -0.184408 0.000000
-0.465762 -0.184408 0.000000
-0.213290 -0.453264 0.000000
-0.093867 -0.492067 0.000000
-0.405269 -0.294445 0.000000
0.496990 0.062784 0.000000
0.485202 -0.124579 0.000000
-0.154799 -0.476422 0.000000
-0.365169 -0.342917 0.000000
-0.465762 0.184408 0.000000
-0.438977 0.241329 0.000000
-0.405269 0.294445 0.000000
-0.268417 -0.422957 0.000000
-0.031523 0.501039 0.000000
0.439932 0.241854 0.000000
-0.269001 0.423877 0.000000
0.365964 0.343663 0.000000
-0.498071 -0.062921 0.000000
0.320005 -0.386820 0.000000
0.406150 0.295085 0.000000
-0.094071 0.493137 0.000000
0.502029 -0.000000 0.000000
-0.213754 0.454250 0.000000
-0.155136 0.477458 0.000000
0.031523 0.501039 0.000000
0.466775 0.184809 0.000000
0.365964 -0.343663 0.000000
0.406150 -0.295085 0.000000
0.320005 0.386820 0.000000
-0.365964 0.343663 0.000000
-0.320005 0.386820 0.000000
0.269001 0.423877 0.000000
0.213754 0.454250 0.000000
-0.320005 -0.386820 0.000000
0.155136 -0.477458 0.000000
-0.486257 -0.124850 0.000000
0.155136 0.477458 0.000000
0.269001 -0.423877 0.000000
0.094071 0.493137 0.000000
-0.031523 -0.501039 0.000000
-0.502029 0.000000 0.000000
0.439932 -0.241854 0.000000
-0.439932 -0.241854 0.000000
0.094071 -0.493137 0.000000
-0.486257 0.124850 0.000000
0.486257 0.124850 0.000000
-0.498071 0.062921 0.000000
0.213754 -0.454250 0.000000
0.031523 -0.501039 0.000000
0.466775 -0.184809 0.000000
0.498071 -0.062921 0.000000
-0.466775 -0.184809 0.000000
-0.213754 -0.454250 0.000000
-0.094071 -0.493137 0.000000
-0.406150 -0.295085 0.000000
0.498071 0.062921 0.000000
-0.155136 -0.477458 0.000000
0.486257 -0.124850 0.000000
-0.365964 -0.343663 0.000000
-0.466775 0.184809 0.000000
-0.439932 0.241854 0.000000
-0.406150 0.295085 0.000000
-0.269001 -0.423877 0.000000
-0.031604 0.502329 0.000000
0.441064 0.242477 0.000000
-0.269693 0.424969 0.000000
0.366906 0.344547 0.000000
-0.499353 -0.063083 0.000000
0.320829 -0.387816 0.000000
0.407196 0.295845 0.000000
-0.094313 0.494407 0.000000
0.503322 -0.000000 0.000000
-0.214304 0.455419 0.000000
-0.155535 0.478688 0.000000
0.031604 0.502329 0.000000
0.467977 0.185285 0.000000
0.366906 -0.344547 0.000000
0.407196 -0.295845 0.000000
0.320829 0.387816 0.000000
0.269693 0.424969 0.000000
-0.366906 0.344547 0.000000
-0.320829 0.387816 0.000000
0.214304 0.455419 0.000000
-0.320829 -0.387816 0.000000
0.155535 -0.478688 0.000000
-0.487509 -0.125171 0.000000
0.155535 0.478688 0.000000
0.269693 -0.424969 0.000000
-0.031604 -0.502329 0.000000
0.094313 0.494407 0.000000
-0.503322 0.000000 0.000000
0.441064 -0.242477 0.000000
-0.441064 -0.242477 0.000000
-0.487509 0.125171 0.000000
0.094313 -0.494407 0.000000
0.487509 0.125171 0.000000
-0.499353 0.063083 0.000000
0.214304 -0.455419 0.000000
0.031604 -0.502329 0.000000
0.467977 -0.185285 0.000000
0.499353 -0.063083 0.000000
-0.467977 -0.185285 0.000000
-0.214304 -0.455419 0.000000
-0.094313 -0.494407 0.000000
-0.407196 -0.295845 0.000000
0.499353 0.063083 0.000000
-0.155535 -0.478688 0.000000
0.487509 -0.125171 0.000000
-0.467977 0.185285 0.000000
-0.366906 -0.344547 0.000000
-0.441064 0.242477 0.000000
-0.407196 0.295845 0.000000
-0.269693 -0.424969 0.000000
-0.031700 0.503862 0.000000
0.442411 0.243217 0.000000
-0.270517 0.426266 0.000000
0.368026 0.345599 0.000000
-0.500877 -0.063276 0.000000
0.321809 -0.389000 0.000000
0.408439 0.296748 0.000000
-0.094601 0.495916 0.000000
0.504858 -0.000000 0.000000
-0.214958 0.456810 0.000000
-0.156010 0.480149 0.000000
0.031700 0.503862 0.000000
0.469405 0.185851 0.000000
0.368026 -0.345599 0.000000
0.408439 -0.296748 0.000000
0.321809 0.389000 0.000000
0.270517 0.426266 0.000000
-0.368026 0.345599 0.000000
-0.321809 0.389000 0.000000
0.214958 0.456810 0.000000
-0.321809 -0.389000 0.000000
0.156010 -0.480149 0.000000
0.270517 -0.426266 0.000000
-0.488997 -0.125553 0.000000
0.156010 0.480149 0.000000
-0.031700 -0.503862 0.000000
0.094601 0.495916 0.000000
-0.504858 0.000000 0.000000
0.442411 -0.243217 0.000000
-0.442411 -0.243217 0.000000
-0.488997 0.125553 0.000000
0.094601 -0.495916 0.000000
0.488997 0.125553 0.000000
-0.500877 0.063276 0.000000
0.214958 -0.456810 0.000000
0.031700 -0.503862 0.000000
0.469405 -0.185851 0.000000
0.500877 -0.063276 0.000000
-0.469405 -0.185851 0.000000
-0.214958 -0.456810 0.000000
-0.094601 -0.495916 0.000000
-0.408439 -0.296748 0.000000
-0.469405 0.185851 0.000000
0.500877 0.063276 0.000000
-0.156010 -0.480149 0.000000
0.488997 -0.125553 0.000000
-0.368026 -0.345599 0.000000
-0.442411 0.243217 0.000000
-0.408439 0.296748 0.000000
-0.270517 -0.426266 0.000000
-0.031815 0.505686 0.000000
0.444012 0.244098 0.000000
-0.271496 0.427809 0.000000
0.369358 0.346850 0.000000
-0.502691 -0.063505 0.000000
0.322974 -0.390408 0.000000
0.409918 0.297823 0.000000
-0.094943 0.497711 0.000000
0.506686 -0.000000 0.000000
-0.215736 0.458463 0.000000
-0.156575 0.481887 0.000000
0.031815 0.505686 0.000000
0.369358 -0.346850 0.000000
0.409918 -0.297823 0.000000
0.471105 0.186524 0.000000
0.322974 0.390408 0.000000
0.271496 0.427809 0.000000
-0.369358 0.346850 0.000000
-0.322974 0.390408 0.000000
0.215736 0.458463 0.000000
0.156575 -0.481887 0.000000
-0.322974 -0.390408 0.000000
0.271496 -0.427809 0.000000
-0.490768 -0.126008 0.000000
0.156575 0.481887 0.000000
-0.031815 -0.505686 0.000000
0.094943 0.497711 0.000000
-0.506686 0.000000 0.000000
0.444012 -0.244098 0.000000
-0.490768 0.126008 0.000000
-0.444012 -0.244098 0.000000
0.094943 -0.497711 0.000000
0.490768 0.126008 0.000000
-0.502691 0.063505 0.000000
0.215736 -0.458463 0.000000
0.031815 -0.505686 0.000000
0.471105 -0.186524 0.000000
-0.471105 -0.186524 0.000000
0.502691 -0.063505 0.000000
-0.215736 -0.458463 0.000000
-0.094943 -0.497711 0.000000
-0.409918 -0.297823 0.000000
-0.471105 0.186524 0.000000
0.502691 0.063505 0.000000
-0.156575 -0.481887 0.000000
0.490768 -0.126008 0.000000
-0.369358 -0.346850 0.000000
-0.444012 0.244098 0.000000
-0.409918 0.297823 0.000000
-0.271496 -0.427809 0.000000
-0.031952 0.507855 0.000000
0.445917 0.245145 0.000000
-0.272661 0.429644 0.000000
0.370943 0.348338 0.000000
-0.504847 -0.063777 0.000000
0.324359 -0.392083 0.000000
0.411676 0.299100 0.000000
-0.095351 0.499846 0.000000
0.508859 -0.000000 0.000000
-0.216662 0.460430 0.000000
-0.157246 0.483954 0.000000
0.031952 0.507855 0.000000
0.370943 -0.348338 0.000000
0.411676 -0.299100 0.000000
0.324359 0.392083 0.000000
0.473126 0.187324 0.000000
0.272661 0.429644 0.000000
-0.370943 0.348338 0.000000
-0.324359 0.392083 0.000000
0.216662 0.460430 0.000000
0.157246 -0.483954 0.000000
-0.324359 -0.392083 0.000000
0.272661 -0.429644 0.000000
0.157246 0.483954 0.000000
-0.492873 -0.126548 0.000000
-0.031952 -0.507855 0.000000
0.095351 0.499846 0.000000
0.445917 -0.245145 0.000000
-0.508859 0.000000 0.000000
-0.492873 0.126548 0.000000
-0.445917 -0.245145 0.000000
0.095351 -0.499846 0.000000
-0.504847 0.063777 0.000000
0.216662 -0.460430 0.000000
0.492873 0.126548 0.000000
0.031952 -0.507855 0.000000
0.473126 -0.187324 0.000000
-0.473126 -0.187324 0.000000
0.504847 -0.063777 0.000000
-0.216662 -0.460430 0.000000
-0.095351 -0.499846 0.000000
-0.473126 0.187324 0.000000
-0.411676 -0.299100 0.000000
-0.157246 -0.483954 0.000000
0.504847 0.063777 0.000000
0.492873 -0.126548 0.000000
-0.370943 -0.348338 0.000000
-0.445917 0.245145 0.000000
-0.411676 0.299100 0.000000
-0.272661 -0.429644 0.000000
0.318712 0.385257 0.100000
-0.318712 0.385257 0.100000
[...]
POINT_DATA 5000
SCALARS pressure float 1
LOOKUP_TABLE default
101661.860103
101661.860103
101661.860103
101661.860103
101661.860103
101661.860103
101661.860103
101661.860103
101661.860103
101661.860103
101661.860103
101661.860103
101661.860103
101661.860103
101661.860103
101661.860103
101325.000000
101325.000000
101325.000000
101325.000000
101325.000000
101325.000000
101325.000000
101325.000000
101325.000000
101325.000000
101325.000000
101325.000000
101325.000000
101325.000000
101325.000000
101325.000000
101325.000000
101325.000000
101325.000000
101325.000000
101325.000000
101325.000000
101325.000000
101325.000000
101325.000000
101325.000000
101325.000000
101325.000000
101325.000000
101325.000000
101325.000000
101325.000000
101325.000000
101325.000000
101323.993977
101324.765591
101324.279978
101324.526707
101324.984134
101324.400369
101324.651052
101324.025458
101325.000000
101324.173097
101324.086442
101323.993977
101324.863128
101324.400369
101324.526707
101324.651052
101324.526707
101324.400369
101324.279978
101324.173097
101324.400369
101324.086442
101324.937535
101324.086442
101324.279978
101324.025458
101323.993977
101325.000000
101324.765591
101324.765591
101324.025458
101324.937535
101324.937535
101324.984134
101324.173097
101323.993977
101324.984134
101324.863128
101324.863128
101324.173097
101324.025458
101324.651052
101324.984134
101324.937535
101324.086442
101324.526707
101324.863128
101324.765591
101324.651052
101324.279978
101322.834482
101324.495423
101323.450114
101323.981211
101324.965848
101323.709263
101324.248870
101322.902246
101325.000000
101323.220046
101323.033517
101322.834482
101324.705377
101323.981211
101324.248870
101323.709263
101323.981211
101323.709263
101323.450114
101323.220046
101323.709263
101323.033517
101324.865540
101323.033517
101323.450114
101322.902246
101322.834482
101325.000000
101324.495423
101324.495423
101322.902246
101324.865540
101324.865540
101324.965848
101323.220046
101322.834482
101324.705377
101324.965848
101324.705377
101323.220046
101322.902246
101324.248870
101324.965848
101323.033517
101324.865540
101323.981211
101324.705377
101324.495423
101324.248870
101323.450114
101321.468579
101324.177160
101322.472521
101323.338609
101324.944307
101322.895130
101323.775095
101321.579086
101325.000000
101322.097339
101321.793156
101321.468579
101324.519543
101323.338609
101323.775095
101322.895130
101322.472521
101323.338609
101322.895130
101322.097339
101322.895130
101321.793156
101324.780729
101321.793156
101322.472521
101321.468579
101321.579086
101325.000000
101324.177160
101324.177160
101324.780729
101321.579086
101324.780729
101324.944307
101322.097339
101321.468579
101324.519543
101324.944307
101324.519543
101322.097339
101321.579086
101323.775095
101324.944307
101321.793156
101324.780729
101324.519543
101323.338609
101324.177160
101323.775095
101322.472521
101319.858581
101323.802022
101321.320228
101322.581170
101324.918917
101321.935505
101323.216652
101320.019469
101325.000000
101320.773997
101320.331135
101319.858581
101324.300499
101322.581170
101323.216652
101321.935505
101321.320228
101322.581170
101321.935505
101320.773997
101321.935505
101320.331135
101321.320228
101324.680762
101320.331135
101319.858581
101320.019469
101325.000000
101323.802022
101323.802022
101324.680762
101320.019469
101324.680762
101324.918917
101320.773997
101319.858581
101324.300499
101324.918917
101324.300499
101320.773997
101320.019469
101323.216652
101324.300499
101324.918917
101320.331135
101324.680762
101322.581170
101323.802022
101323.216652
101321.320228
101317.962642
101323.360259
101319.963282
101321.689207
101324.889017
101320.805449
101322.559029
101318.182858
101325.000000
101319.215625
101318.609454
101317.962642
101321.689207
101322.559029
101324.042553
101320.805449
101319.963282
101321.689207
101320.805449
101319.215625
101318.609454
101320.805448
101319.963282
101324.563040
101318.609454
101317.962642
101318.182858
101325.000000
101323.360259
101324.563040
101323.360259
101318.182858
101324.563040
101324.889017
101319.215625
101317.962642
101324.042553
101324.042553
101324.889017
101319.215625
101318.182858
101322.559029
101324.042553
101324.889017
101318.609454
101324.563040
101321.689207
101323.360258
101322.559029
101319.963282
101315.734548
101322.841101
101318.368610
101320.640979
101324.853878
101319.477414
101321.786194
101316.024487
101325.000000
101317.384237
101316.586147
101315.734548
101320.640979
101321.786194
101319.477414
101323.739416
101318.368610
101320.640979
101319.477414
101317.384237
101316.586147
101319.477414
101318.368610
101316.586147
101324.424695
101315.734548
101316.024487
101322.841101
101325.000000
101324.424695
101322.841101
101316.024487
101324.853878
101317.384237
101324.424695
101315.734548
101323.739416
101323.739416
101324.853878
101317.384237
101316.024487
101323.739416
101321.786194
101316.586147
101324.853878
101324.424695
101320.640979
101322.841101
101321.786194
101318.368610
101661.860103
101661.860103
101661.860103
101661.860103
101661.860103
101661.860103
101661.860103
101661.860103
101661.860103
101661.860103
101661.860103
101661.860103
101661.860103
101661.860103
101661.860103
101661.860103
101325.000000
101325.000000
101325.000000
101325.000000
101325.000000
101325.000000
101325.000000
101325.000000
101325.000000
101325.000000
101325.000000
101325.000000
101325.000000
101325.000000
101325.000000
101325.000000
101325.000000
101325.000000
101325.000000
101325.000000
101325.000000
101325.000000
101325.000000
101325.000000
101325.000000
101325.000000
101325.000000
101325.000000
101325.000000
101325.000000
101325.000000
101325.000000
101325.000000
101325.000000
101323.993977
101324.765591
101324.025458
101324.651052
101324.651052
101324.086442
101324.526707
101324.086442
101324.279978
101324.173097
101324.279978
101324.400369
101324.765591
101323.993977
101324.984134
101324.086442
101324.526707
101324.863128
101324.937535
101324.173097
101324.400369
101324.025458
101324.400369
101324.279978
101324.937535
101324.765591
101325.000000
101324.173097
101324.937535
101324.025458
101324.173097
101324.863128
101324.863128
101325.000000
101324.984134
101324.526707
101323.993977
101323.993977
101324.400369
101324.984134
101324.765591
101324.863128
101324.651052
101324.984134
101324.086442
101324.025458
101324.279978
101324.937535
101324.526707
101324.651052
101313.123233
101322.232651
101319.412461
101316.499662
101324.812696
101317.920964
101320.880436
101313.494887
101325.000000
101315.237860
101314.214842
101313.123233
101319.412461
101320.880436
101317.920964
101323.384141
101316.499662
101315.237860
101319.412461
101317.920964
101314.214842
101317.920964
101316.499662
101314.214842
101324.262554
101313.123233
101313.494887
101322.232651
101325.000000
101324.262554
101322.232651
101313.494887
101315.237860
101324.812696
101324.262554
101313.123233
101323.384141
101323.384141
101324.812696
101315.237860
101323.384141
101313.494887
101320.880436
101314.214842
101324.812696
101324.262554
101319.412461
101322.232651
101320.880436
101316.499662
101322.834482
101324.495423
101322.902246
101324.248870
101324.248870
101323.981211
101323.033517
101323.033517
101323.450114
101323.220046
101323.450114
101323.709263
101324.495423
101322.834482
101324.965848
101323.033517
101323.981211
101324.705377
101324.865540
101323.220046
101323.709263
101322.902246
101323.709263
101323.450114
101324.865540
101324.495423
101323.220046
101325.000000
101324.865540
101322.902246
101323.220046
101324.705377
101324.705377
101324.965848
101325.000000
101323.981211
101322.834482
101322.834482
101323.709263
101324.965848
101324.495423
101324.705377
101324.248870
101324.965848
101323.033517
101322.902246
101323.450114
101324.865540
101323.981211
101324.248870
101321.468579
101324.177160
101321.579086
101323.775095
101323.775095
101323.338609
101321.793156
101321.793156
101322.472521
101322.097339
101322.472521
101322.895130
101324.177160
101324.944307
101321.468579
101321.793156
101323.338609
101324.780729
101324.519543
101322.097339
101322.895130
101321.579086
101322.895130
101322.472521
101324.780729
101324.177160
101322.097339
101325.000000
101324.780729
101321.579086
101322.097339
101324.519543
101324.519543
101324.944307
101325.000000
101323.338609
101321.468579
101321.468579
101322.895130
101324.944307
101324.177160
101324.519543
101323.775095
101324.944307
101321.793156
101321.579086
101322.472521
101324.780729
101323.338609
101323.775095
101310.069972
101321.521225
101317.976025
101314.314408
101324.764545
101316.101096
101319.821385
101310.537169
101325.000000
101312.728223
101311.442209
101310.069972
101319.821385
101317.976025
101316.101096
101322.968738
101314.314408
101312.728223
101317.976025
101316.101096
101311.442209
101314.314408
101316.101096
101311.442209
101324.072973
101310.069972
101321.521225
101310.537169
101325.000000
101324.072973
101321.521225
101310.537169
101312.728223
101324.764545
101324.072973
101310.069972
101322.968738
101322.968738
101324.764545
101312.728223
101322.968738
101310.537169
101319.821385
101311.442209
101324.764545
101321.521225
101324.072973
101317.976025
101314.314408
101319.821385
101319.858581
101323.802022
101320.019469
101323.216652
101323.216652
101322.581170
101320.331135
101320.331135
101321.320228
101321.320228
101320.773997
101321.935505
101323.802022
101324.918917
101319.858581
101320.331135
101322.581170
101324.680762
101324.300499
101320.773997
101321.935505
101320.019469
101321.935505
101321.320228
101324.680762
101323.802022
101320.773997
101325.000000
101324.680762
101320.019469
101320.773997
101324.300499
101324.300499
101324.918917
101325.000000
101322.581170
101319.858581
101319.858581
101321.935505
101324.918917
101323.802022
101324.300499
101323.216652
101324.918917
101320.331135
101320.019469
101321.320228
101324.680762
101322.581170
101323.216652
101317.962642
101323.360259
101322.559029
101318.182858
101322.559029
101321.689207
101318.609454
101318.609454
101319.963282
101319.963282
101319.215625
101320.805449
101323.360259
101324.889017
101318.609454
101317.962642
101321.689207
101324.563040
101319.215625
101324.042553
101320.805448
101318.182858
101319.963282
101320.805448
101324.563040
101323.360259
101319.215625
101325.000000
101318.182858
101324.563040
101319.215625
101324.042553
101324.042553
101324.889017
101325.000000
101321.689207
101317.962642
101317.962642
101320.805448
101324.889017
101323.360259
101324.042553
101322.559029
101318.609454
101318.182858
101324.889017
101319.963282
101324.563040
101321.689207
101322.559029
101306.506486
101320.690914
101316.299549
101311.763980
101324.708346
101313.977114
101318.585357
101307.085194
101325.000000
101309.799206
101308.206247
101306.506486
101318.585357
101316.299549
101313.977114
101311.763980
101322.483919
101309.799206
101316.299549
101313.977114
101308.206247
101311.763980
101313.977114
101308.206247
101323.851711
101306.506486
101320.690914
101307.085193
101325.000000
101323.851711
101307.085193
101320.690914
101309.799206
101324.708346
101323.851711
101306.506485
101322.483919
101322.483919
101322.483919
101309.799206
101324.708346
101307.085193
101308.206247
101318.585357
101324.708346
101320.690914
101323.851711
101316.299549
101311.763980
101318.585357
101315.734548
101322.841101
101321.786194
101316.024487
101321.786194
101320.640979
101316.586147
101316.586147
101318.368610
101318.368610
101317.384237
101319.477414
101322.841101
101324.853878
101316.586147
101315.734548
101320.640979
101324.424695
101317.384237
101323.739416
101319.477414
101318.368610
101316.024487
101319.477414
101324.424695
101322.841101
101317.384237
101325.000000
101316.024487
101324.424695
101317.384237
101323.739416
101323.739416
101324.853878
101325.000000
101320.640979
101315.734548
101315.734548
101319.477414
101323.739416
101322.841101
101324.853878
101321.786194
101316.586147
101316.024487
101318.368610
101324.853878
101324.424695
101320.640979
101321.786194
101313.123233
101322.232651
101320.880436
101320.880436
101319.412461
101313.494887
101314.214842
101314.214842
101316.499662
101316.499662
101315.237860
101317.920964
101322.232651
101324.812696
101314.214842
101313.123233
101319.412461
101324.262554
101315.237860
101323.384141
101317.920964
101316.499662
101313.494887
101324.262554
101322.232651
101317.920964
101315.237860
101313.494887
101325.000000
101315.237860
101324.262554
101323.384141
101323.384141
101324.812696
101325.000000
101313.123233
101319.412461
101313.123233
101317.920964
101323.384141
101322.232651
101324.812696
101320.880436
101314.214842
101313.494887
101316.499662
101324.812696
101324.262554
101319.412461
101320.880436
101302.372899
101319.727766
101314.354863
101308.805525
101324.643157
101311.513328
101317.151585
101303.080957
101325.000000
101306.401594
101304.452583
101302.372899
101317.151585
101314.354863
101311.513328
101308.805525
101306.401594
101321.921536
101304.452583
101314.354863
101311.513328
101308.805525
101304.452583
101311.513328
101323.595050
101319.727766
101302.372899
101303.080957
101325.000000
101323.595050
101303.080957
101319.727766
101306.401594
101324.643157
101323.595050
101302.372899
101321.921536
101321.921536
101321.921536
101306.401594
101324.643157
101303.080957
101304.452583
101317.151585
101319.727766
101324.643157
101323.595050
101314.354863
101308.805525
101317.151585
101310.069972
101321.521225
101319.821385
101319.821385
101317.976025
101311.442209
101310.537169
101311.442209
101314.314408
101314.314408
101316.101096
101312.728223
101321.521225
101311.442209
101324.764545
101310.069972
101317.976025
101324.072973
101312.728223
101322.968738
101316.101096
101314.314408
101310.537169
101321.521225
101324.072973
101316.101096
101312.728223
101310.537169
101312.728223
101325.000000
101324.072973
101322.968738
101322.968738
101324.764545
101325.000000
101310.069972
101310.069972
101317.976025
101322.968738
101316.101096
101321.521225
101324.764545
101319.821385
101311.442209
101310.537169
101314.314408
101324.072973
101324.764545
101317.976025
101319.821385
101297.601277
101318.615953
101312.110008
101305.390421
101324.567906
101308.669248
101315.496505
101298.458651
101325.000000
101300.119527
101302.479547
101297.601277
101315.496505
101312.110008
101308.669248
101305.390420
101302.479547
101321.272346
101300.119527
101305.390420
101312.110008
101308.669248
101300.119527
101323.298773
101318.615953
101308.669248
101297.601277
101298.458651
101323.298773
101325.000000
101298.458651
101318.615953
101302.479547
101324.567906
101297.601277
101323.298773
101321.272346
101321.272346
101321.272346
101302.479547
101298.458651
101324.567906
101300.119527
101315.496505
101318.615953
101324.567906
101323.298773
101312.110008
101305.390420
101315.496505
101306.506486
101320.690914
101318.585357
101318.585357
101316.299549
101308.206247
101307.085194
101308.206247
101311.763980
101311.763980
101313.977114
101309.799206
101320.690914
101308.206247
101324.708346
101316.299549
101323.851711
101306.506486
101309.799206
101322.483919
101313.977114
101311.763980
101320.690914
101307.085194
101323.851711
101309.799206
101313.977114
101309.799206
101307.085193
101325.000000
101323.851711
101322.483919
101322.483919
101324.708346
101325.000000
101306.506485
101306.506485
101316.299549
101322.483919
101313.977114
101320.690914
101324.708346
101308.206247
101318.585357
101307.085193
101311.763980
101323.851711
101324.708346
101316.299549
101318.585357
101302.372899
101319.727766
101317.151585
101304.452583
101314.354863
101317.151585
101303.080957
101304.452583
101308.805525
101308.805525
101311.513328
101319.727766
101306.401594
101304.452583
101324.643157
101314.354863
101323.595050
101302.372899
101306.401594
101311.513328
101308.805525
101321.921536
101319.727766
101303.080957
101323.595050
101306.401594
101306.401594
101311.513328
101303.080957
101325.000000
101323.595050
101321.921536
101321.921536
101324.643157
101302.372899
101302.372899
101325.000000
101321.921536
101314.354863
101311.513328
101319.727766
101324.643157
101304.452583
101308.805525
101303.080957
101317.151585
101323.595050
101324.643157
101314.354863
101317.151585
101292.119229
101317.338607
101309.530926
101301.466856
101305.401725
101324.481451
101313.595007
101293.148150
101325.000000
101295.141341
101297.973563
101313.595007
101292.119229
101309.530926
101305.401724
101297.973563
101301.466856
101320.526502
101295.141341
101301.466856
101295.141341
101309.530926
101317.338607
101305.401724
101322.958385
101292.119229
101305.401724
101293.148150
101322.958385
101325.000000
101293.148150
101317.338607
101297.973563
101324.481451
101292.119229
101322.958385
101320.526502
101320.526502
101320.526502
101297.973563
101293.148150
101295.141341
101324.481451
101317.338607
101313.595007
101324.481451
101322.958385
101301.466856
101309.530926
101313.595007
101297.601277
101318.615953
101315.496505
101300.119527
101312.110008
101315.496505
101298.458651
101300.119527
101305.390420
101305.390420
101308.669248
101318.615953
101300.119527
101302.479547
101324.567906
101323.298773
101312.110008
101302.479547
101297.601277
101305.390420
101308.669248
101318.615953
101321.272346
101302.479547
101323.298773
101302.479547
101298.458651
101308.669248
101298.458651
101321.272346
101321.272346
101325.000000
101323.298773
101324.567906
101297.601277
101297.601277
101321.272346
101325.000000
101312.110008
101318.615953
101308.669248
101324.567906
101300.119527
101305.390420
101298.458651
101315.496505
101323.298773
101324.567906
101312.110008
101315.496505
101285.839958
101315.875504
101306.576783
101296.972710
101301.659024
101324.382423
101311.416985
101287.065373
101325.000000
101311.416985
101306.576783
101289.439206
101292.812299
101285.839958
101292.812299
101301.659024
101296.972710
101289.439206
101296.972710
101319.672194
101315.875504
101289.439206
101322.568496
101306.576783
101301.659024
101285.839958
101301.659024
101322.568496
101287.065373
101325.000000
101287.065373
101315.875504
101292.812299
101324.382423
101319.672194
101285.839958
101319.672194
101322.568496
101292.812299
101319.672194
101287.065373
101289.439206
101324.382423
101315.875504
101311.416985
101324.382423
101296.972710
101322.568496
101306.576782
101311.416985
101292.119229
101317.338607
101313.595007
101295.141341
101309.530926
101313.595007
101293.148150
101301.466856
101295.141341
101305.401724
101301.466856
101317.338607
101295.141341
101322.958385
101324.481451
101309.530926
101297.973563
101297.973563
101292.119229
101301.466856
101305.401724
101297.973563
101317.338607
101297.973563
101322.958385
101320.526502
101293.148150
101293.148150
101305.401724
101320.526502
101320.526502
101322.958385
101325.000000
101324.481451
101320.526502
101292.119229
101292.119229
101325.000000
101317.338607
101309.530926
101305.401724
101295.141341
101324.481451
101301.466856
101293.148150
101313.595007
101322.958385
101324.481451
101309.530926
101313.595007
101278.729095
101314.218636
101303.231408
101291.883383
101297.420660
101324.270280
101308.950518
101280.177026
101325.000000
101308.950518
101303.231408
101286.967506
101297.420660
101291.883383
101282.981910
101278.729095
101286.967506
101282.981910
101291.883383
101314.218636
101282.981910
101318.704747
101322.126972
101278.729094
101303.231408
101297.420660
101297.420660
101322.126972
101280.177026
101325.000000
101280.177026
101314.218636
101286.967506
101318.704746
101324.270280
101278.729094
101286.967506
101318.704746
101322.126972
101318.704747
101282.981910
101280.177026
101314.218636
101324.270280
101308.950518
101291.883383
101324.270280
101322.126972
101303.231408
101308.950518
101285.839958
101311.416985
101315.875504
101289.439206
101306.576783
101311.416985
101287.065373
101296.972710
101301.659024
101289.439206
101315.875504
101296.972710
101289.439206
101322.568496
101306.576783
101324.382423
101292.812299
101292.812299
101285.839958
101292.812299
101296.972710
101301.659024
101315.875504
101292.812299