# vtk DataFile Version 3.0
Time Step 104, Physical Time = 0.001040s, Residual = 3.53e-03
ASCII
DATASET UNSTRUCTURED_GRID
POINTS 5000 float
0.318712 0.385257 0.000000
-0.318712 0.385257 0.000000
-0.318712 -0.385257 0.000000
0.318712 -0.385257 0.000000
0.093691 0.491144 0.000000
-0.093691 0.491144 0.000000
-0.093691 -0.491144 0.000000
0.093691 -0.491144 0.000000
0.404508 0.293893 0.000000
-0.404508 0.293893 0.000000
-0.404508 -0.293893 0.000000
0.404508 -0.293893 0.000000
0.438153 0.240877 0.000000
-0.438153 0.240877 0.000000
-0.438153 -0.240877 0.000000
0.438153 -0.240877 0.000000
0.500000 0.000000 0.000000
-0.500000 -0.000000 0.000000
0.364484 0.342274 0.000000
-0.364484 0.342274 0.000000
-0.364484 -0.342274 0.000000
0.364484 -0.342274 0.000000
0.496057 0.062667 0.000000
-0.496057 0.062667 0.000000
-0.496057 -0.062667 0.000000
0.496057 -0.062667 0.000000
0.212890 0.452414 0.000000
-0.212890 0.452414 0.000000
-0.212890 -0.452414 0.000000
0.212890 -0.452414 0.000000
0.154508 0.475528 0.000000
-0.154508 0.475528 0.000000
-0.154508 -0.475528 0.000000
0.154508 -0.475528 0.000000
0.267913 0.422164 0.000000
-0.267913 0.422164 0.000000
-0.267913 -0.422164 0.000000
0.267913 -0.422164 0.000000
0.031395 0.499013 0.000000
-0.031395 0.499013 0.000000
-0.031395 -0.499013 0.000000
0.031395 -0.499013 0.000000
0.464888 0.184062 0.000000
-0.464888 0.184062 0.000000
-0.464888 -0.184062 0.000000
0.464888 -0.184062 0.000000
0.484292 0.124345 0.000000
-0.484292 0.124345 0.000000
-0.484292 -0.124345 0.000000
0.484292 -0.124345 0.000000
-0.031454 0.499951 0.000000
0.438977 0.241329 0.000000
-0.268417 0.422957 0.000000
0.365169 0.342917 0.000000
-0.496990 -0.062784 0.000000
0.319311 -0.385981 0.000000
0.405269 0.294445 0.000000
-0.093867 0.492067 0.000000
0.500940 -0.000000 0.000000
-0.213290 0.453264 0.000000
-0.154799 0.476422 0.000000
0.031454 0.499951 0.000000
0.465762 0.184408 0.000000
0.319311 0.385981 0.000000
0.365169 -0.342917 0.000000
0.405269 -0.294445 0.000000
-0.365169 0.342917 0.000000
-0.319311 0.385981 0.000000
0.268417 0.422957 0.000000
0.213290 0.453264 0.000000
-0.319311 -0.385981 0.000000
0.154799 -0.476422 0.000000
-0.485202 -0.124579 0.000000
0.154799 0.476422 0.000000
0.268417 -0.422957 0.000000
0.093867 0.492067 0.000000
-0.031454 -0.499951 0.000000
-0.500940 0.000000 0.000000
0.438977 -0.241329 0.000000
-0.438977 -0.241329 0.000000
0.093867 -0.492067 0.000000
-0.485202 0.124579 0.000000
0.485202 0.124579 0.000000
-0.496990 0.062784 0.000000
0.213290 -0.453264 0.000000
0.031454 -0.499951 0.000000
0.496990 -0.062784 0.000000
0.465762 -0.184408 0.000000
-0.465762 -0.184408 0.000000
-0.213290 -0.453264 0.000000
-0.093867 -0.492067 0.000000
-0.405269 -0.294445 0.000000
0.496990 0.062784 0.000000
0.485202 -0.124579 0.000000
-0.154799 -0.476422 0.000000
-0.365169 -0.342917 0.000000
-0.465762 0.184408 0.000000
-0.438977 0.241329 0.000000
-0.405269 0.294445 0.000000
-0.268417 -0.422957 0.000000
-0.031523 0.501039 0.000000
0.439932 0.241854 0.000000
-0.269001 0.423877 0.000000
0.365964 0.343663 0.000000
-0.498071 -0.062921 0.000000
0.320005 -0.386820 0.000000
0.406150 0.295085 0.000000
-0.094071 0.493137 0.000000
0.502029 -0.000000 0.000000
-0.213754 0.454250 0.000000
-0.155136 0.477458 0.000000
0.031523 0.501039 0.000000
0.466775 0.184809 0.000000
0.365964 -0.343663 0.000000
0.406150 -0.295085 0.000000
0.320005 0.386820 0.000000
-0.365964 0.343663 0.000000
-0.320005 0.386820 0.000000
0.269001 0.423877 0.000000
0.213754 0.454250 0.000000
-0.320005 -0.386820 0.000000
0.155136 -0.477458 0.000000
-0.486257 -0.124850 0.000000
0.155136 0.477458 0.000000
0.269001 -0.423877 0.000000
0.094071 0.493137 0.000000
-0.031523 -0.501039 0.000000
-0.502029 0.000000 0.000000
0.439932 -0.241854 0.000000
-0.439932 -0.241854 0.000000
0.094071 -0.493137 0.000000
-0.486257 0.124850 0.000000
0.486257 0.124850 0.000000
-0.498071 0.062921 0.000000
0.213754 -0.454250 0.000000
0.031523 -0.501039 0.000000
0.466775 -0.184809 0.000000
0.498071 -0.062921 0.000000
-0.466775 -0.184809 0.000000
-0.213754 -0.454250 0.000000
-0.094071 -0.493137 0.000000
-0.406150 -0.295085 0.000000
0.498071 0.062921 0.000000
-0.155136 -0.477458 0.000000
0.486257 -0.124850 0.000000
-0.365964 -0.343663 0.000000
-0.466775 0.184809 0.000000
-0.439932 0.241854 0.000000
-0.406150 0.295085 0.000000
-0.269001 -0.423877 0.000000
-0.031604 0.502329 0.000000
0.441064 0.242477 0.000000
-0.269693 0.424969 0.000000
0.366906 0.344547 0.000000
-0.499353 -0.063083 0.000000
0.320829 -0.387816 0.000000
0.407196 0.295845 0.000000
-0.094313 0.494407 0.000000
0.503322 -0.000000 0.000000
-0.214304 0.455419 0.000000
-0.155535 0.478688 0.000000
0.031604 0.502329 0.000000
0.467977 0.185285 0.000000
0.366906 -0.344547 0.000000
0.407196 -0.295845 0.000000
0.320829 0.387816 0.000000
0.269693 0.424969 0.000000
-0.366906 0.344547 0.000000
-0.320829 0.387816 0.000000
0.214304 0.455419 0.000000
-0.320829 -0.387816 0.000000
0.155535 -0.478688 0.000000
-0.487509 -0.125171 0.000000
0.155535 0.478688 0.000000
0.269693 -0.424969 0.000000
-0.031604 -0.502329 0.000000
0.094313 0.494407 0.000000
-0.503322 0.000000 0.000000
0.441064 -0.242477 0.000000
-0.441064 -0.242477 0.000000
-0.487509 0.125171 0.000000
0.094313 -0.494407 0.000000
0.487509 0.125171 0.000000
-0.499353 0.063083 0.000000
0.214304 -0.455419 0.000000
0.031604 -0.502329 0.000000
0.467977 -0.185285 0.000000
0.499353 -0.063083 0.000000
-0.467977 -0.185285 0.000000
-0.214304 -0.455419 0.000000
-0.094313 -0.494407 0.000000
-0.407196 -0.295845 0.000000
0.499353 0.063083 0.000000
-0.155535 -0.478688 0.000000
0.487509 -0.125171 0.000000
-0.467977 0.185285 0.000000
-0.366906 -0.344547 0.000000
-0.441064 0.242477 0.000000
-0.407196 0.295845 0.000000
-0.269693 -0.424969 0.000000
-0.031700 0.503862 0.000000
0.442411 0.243217 0.000000
-0.270517 0.426266 0.000000
0.368026 0.345599 0.000000
-0.500877 -0.063276 0.000000
0.321809 -0.389000 0.000000
0.408439 0.296748 0.000000
-0.094601 0.495916 0.000000
0.504858 -0.000000 0.000000
-0.214958 0.456810 0.000000
-0.156010 0.480149 0.000000
0.031700 0.503862 0.000000
0.469405 0.185851 0.000000
0.368026 -0.345599 0.000000
0.408439 -0.296748 0.000000
0.321809 0.389000 0.000000
0.270517 0.426266 0.000000
-0.368026 0.345599 0.000000
-0.321809 0.389000 0.000000
0.214958 0.456810 0.000000
-0.321809 -0.389000 0.000000
0.156010 -0.480149 0.000000
0.270517 -0.426266 0.000000
-0.488997 -0.125553 0.000000
0.156010 0.480149 0.000000
-0.031700 -0.503862 0.000000
0.094601 0.495916 0.000000
-0.504858 0.000000 0.000000
0.442411 -0.243217 0.000000
-0.442411 -0.243217 0.000000
-0.488997 0.125553 0.000000
0.094601 -0.495916 0.000000
0.488997 0.125553 0.000000
-0.500877 0.063276 0.000000
0.214958 -0.456810 0.000000
0.031700 -0.503862 0.000000
0.469405 -0.185851 0.000000
0.500877 -0.063276 0.000000
-0.469405 -0.185851 0.000000
-0.214958 -0.456810 0.000000
-0.094601 -0.495916 0.000000
-0.408439 -0.296748 0.000000
-0.469405 0.185851 0.000000
0.500877 0.063276 0.000000
-0.156010 -0.480149 0.000000
0.488997 -0.125553 0.000000
-0.368026 -0.345599 0.000000
-0.442411 0.243217 0.000000
-0.408439 0.296748 0.000000
-0.270517 -0.426266 0.000000
-0.031815 0.505686 0.000000
0.444012 0.244098 0.000000
-0.271496 0.427809 0.000000
0.369358 0.346850 0.000000
-0.502691 -0.063505 0.000000
0.322974 -0.390408 0.000000
0.409918 0.297823 0.000000
-0.094943 0.497711 0.000000
0.506686 -0.000000 0.000000
-0.215736 0.458463 0.000000
-0.156575 0.481887 0.000000
0.031815 0.505686 0.000000
0.369358 -0.346850 0.000000
0.409918 -0.297823 0.000000
0.471105 0.186524 0.000000
0.322974 0.390408 0.000000
0.271496 0.427809 0.000000
-0.369358 0.346850 0.000000
-0.322974 0.390408 0.000000
0.215736 0.458463 0.000000
0.156575 -0.481887 0.000000
-0.322974 -0.390408 0.000000
0.271496 -0.427809 0.000000
-0.490768 -0.126008 0.000000
0.156575 0.481887 0.000000
-0.031815 -0.505686 0.000000
0.094943 0.497711 0.000000
-0.506686 0.000000 0.000000
0.444012 -0.244098 0.000000
-0.490768 0.126008 0.000000
-0.444012 -0.244098 0.000000
0.094943 -0.497711 0.000000
0.490768 0.126008 0.000000
-0.502691 0.063505 0.000000
0.215736 -0.458463 0.000000
0.031815 -0.505686 0.000000
0.471105 -0.186524 0.000000
-0.471105 -0.186524 0.000000
0.502691 -0.063505 0.000000
-0.215736 -0.458463 0.000000
-0.094943 -0.497711 0.000000
-0.409918 -0.297823 0.000000
-0.471105 0.186524 0.000000
0.502691 0.063505 0.000000
-0.156575 -0.481887 0.000000
0.490768 -0.126008 0.000000
-0.369358 -0.346850 0.000000
-0.444012 0.244098 0.000000
-0.409918 0.297823 0.000000
-0.271496 -0.427809 0.000000
-0.031952 0.507855 0.000000
0.445917 0.245145 0.000000
-0.272661 0.429644 0.000000
0.370943 0.348338 0.000000
-0.504847 -0.063777 0.000000
0.324359 -0.392083 0.000000
0.411676 0.299100 0.000000
-0.095351 0.499846 0.000000
0.508859 -0.000000 0.000000
-0.216662 0.460430 0.000000
-0.157246 0.483954 0.000000
0.031952 0.507855 0.000000
0.370943 -0.348338 0.000000
0.411676 -0.299100 0.000000
0.324359 0.392083 0.000000
0.473126 0.187324 0.000000
0.272661 0.429644 0.000000
-0.370943 0.348338 0.000000
-0.324359 0.392083 0.000000
0.216662 0.460430 0.000000
0.157246 -0.483954 0.000000
-0.324359 -0.392083 0.000000
0.272661 -0.429644 0.000000
0.157246 0.483954 0.000000
-0.492873 -0.126548 0.000000
-0.031952 -0.507855 0.000000
0.095351 0.499846 0.000000
0.445917 -0.245145 0.000000
-0.508859 0.000000 0.000000
-0.492873 0.126548 0.000000
-0.445917 -0.245145 0.000000
0.095351 -0.499846 0.000000
-0.504847 0.063777 0.000000
0.216662 -0.460430 0.000000
0.492873 0.126548 0.000000
0.031952 -0.507855 0.000000
0.473126 -0.187324 0.000000
-0.473126 -0.187324 0.000000
0.504847 -0.063777 0.000000
-0.216662 -0.460430 0.000000
-0.095351 -0.499846 0.000000
-0.473126 0.187324 0.000000
-0.411676 -0.299100 0.000000
-0.157246 -0.483954 0.000000
0.504847 0.063777 0.000000
0.492873 -0.126548 0.000000
-0.370943 -0.348338 0.000000
-0.445917 0.245145 0.000000
-0.411676 0.299100 0.000000
-0.272661 -0.429644 0.000000
0.318712 0.385257 0.100000
-0.318712 0.385257 0.100000
[...]
POINT_DATA 5000
SCALARS pressure float 1
LOOKUP_TABLE default
101762.534894
101762.534894
101762.534894
101762.534894
101762.534894
101762.534894
101762.534894
101762.534894
101762.534894
101762.534894
101762.534894
101762.534894
101762.534894
101762.534894
101762.534894
101762.534894
101325.000000
101325.000000
101325.000000
101325.000000
101325.000000
101325.000000
101325.000000
101325.000000
101325.000000
101325.000000
101325.000000
101325.000000
101325.000000
101325.000000
101325.000000
101325.000000
101325.000000
101325.000000
101325.000000
101325.000000
101325.000000
101325.000000
101325.000000
101325.000000
101325.000000
101325.000000
101325.000000
101325.000000
101325.000000
101325.000000
101325.000000
101325.000000
101325.000000
101325.000000
101323.693314
101324.695535
101324.064790
101324.385257
101324.979393
101324.221162
101324.546764
101323.734204
101325.000000
101323.925966
101323.813414
101323.693314
101324.822223
101324.221162
101324.385257
101324.546764
101324.385257
101324.221162
101324.064790
101323.925966
101324.221162
101323.813414
101324.918866
101323.813414
101324.064790
101323.734204
101323.693314
101325.000000
101324.695535
101324.695535
101323.734204
101324.918866
101324.918866
101324.979393
101323.925966
101323.693314
101324.979393
101324.822223
101324.822223
101323.925966
101323.734204
101324.546764
101324.979393
101324.918866
101323.813414
101324.385257
101324.822223
101324.695535
101324.546764
101324.064790
101322.187290
101324.344624
101322.986911
101323.676733
101324.955642
101323.323510
101324.024386
101322.275306
101325.000000
101322.688085
101322.445809
101322.187290
101324.617325
101323.676733
101324.024386
101323.323510
101323.676733
101323.323510
101322.986911
101322.688085
101323.323510
101322.445809
101324.825355
101322.445809
101322.986911
101322.275306
101322.187290
101325.000000
101324.344624
101324.344624
101322.275306
101324.825355
101324.825355
101324.955642
101322.688085
101322.187290
101324.617325
101324.955642
101324.617325
101322.688085
101322.275306
101324.024386
101324.955642
101322.445809
101324.825355
101323.676733
101324.617325
101324.344624
101324.024386
101322.986911
101320.413170
101323.931245
101321.717153
101322.842082
101324.927663
101322.266063
101323.409017
101320.556703
101325.000000
101321.229843
101320.834751
101320.413170
101324.375952
101322.842082
101323.409017
101322.266063
101321.717153
101322.842082
101322.266063
101321.229843
101322.266063
101320.834751
101324.715197
101320.834751
101321.717153
101320.413170
101320.556703
101325.000000
101323.931245
101323.931245
101324.715197
101320.556703
101324.715197
101324.927663
101321.229843
101320.413170
101324.375952
101324.927663
101324.375952
101321.229843
101320.556703
101323.409017
101324.927663
101320.834751
101324.715197
101324.375952
101322.842082
101323.931245
101323.409017
101321.717153
101318.322005
101323.443992
101320.220482
101321.858273
101324.894684
101321.019643
101322.683677
101318.530976
101325.000000
101319.511004
101318.935787
101318.322005
101324.091445
101321.858273
101322.683677
101321.019643
101320.220482
101321.858273
101321.019643
101319.511004
101321.019643
101318.935787
101320.220482
101324.585353
101318.935787
101318.322005
101318.530976
101325.000000
101323.443992
101323.443992
101324.585353
101318.530976
101324.585353
101324.894684
101319.511004
101318.322005
101324.091445
101324.894684
101324.091445
101319.511004
101318.530976
101322.683677
101324.091445
101324.894684
101318.935787
101324.585353
101321.858273
101323.443992
101322.683677
101320.220482
101315.859441
101322.870202
101318.457997
101320.699736
101324.855848
101319.551855
101321.829514
101316.145471
101325.000000
101317.486893
101316.699561
101315.859441
101320.699736
101321.829514
101323.756408
101319.551855
101318.457997
101320.699736
101319.551855
101317.486893
101316.699561
101319.551855
101318.457997
101324.432449
101316.699561
101315.859441
101316.145471
101325.000000
101322.870202
101324.432449
101322.870202
101316.145471
101324.432449
101324.855848
101317.486893
101315.859441
101323.756408
101323.756408
101324.855848
101317.486893
101316.145471
101321.829514
101323.756408
101324.855848
101316.699561
101324.432449
101320.699736
101322.870202
101321.829514
101318.457997
101312.965454
101322.195887
101316.386738
101319.338232
101324.810208
101317.826921
101320.825709
101313.342045
101325.000000
101315.108173
101314.071564
101312.965454
101319.338232
101320.825709
101317.826921
101323.362675
101316.386738
101319.338232
101317.826921
101315.108173
101314.071564
101317.826921
101316.386738
101314.071564
101324.252757
101312.965454
101313.342045
101322.195887
101325.000000
101324.252757
101322.195887
101313.342045
101324.810208
101315.108173
101324.252757
101312.965454
101323.362675
101323.362675
101324.810208
101315.108173
101313.342045
101323.362675
101320.825709
101314.071564
101324.810208
101324.252757
101319.338232
101322.195887
101320.825709
101316.386738
101762.534894
101762.534894
101762.534894
101762.534894
101762.534894
101762.534894
101762.534894
101762.534894
101762.534894
101762.534894
101762.534894
101762.534894
101762.534894
101762.534894
101762.534894
101762.534894
101325.000000
101325.000000
101325.000000
101325.000000
101325.000000
101325.000000
101325.000000
101325.000000
101325.000000
101325.000000
101325.000000
101325.000000
101325.000000
101325.000000
101325.000000
101325.000000
101325.000000
101325.000000
101325.000000
101325.000000
101325.000000
101325.000000
101325.000000
101325.000000
101325.000000
101325.000000
101325.000000
101325.000000
101325.000000
101325.000000
101325.000000
101325.000000
101325.000000
101325.000000
101323.693314
101324.695535
101323.734204
101324.546764
101324.546764
101323.813414
101324.385257
101323.813414
101324.064790
101323.925966
101324.064790
101324.221162
101324.695535
101323.693314
101324.979393
101323.813414
101324.385257
101324.822223
101324.918866
101323.925966
101324.221162
101323.734204
101324.221162
101324.064790
101324.918866
101324.695535
101325.000000
101323.925966
101324.918866
101323.734204
101323.925966
101324.822223
101324.822223
101325.000000
101324.979393
101324.385257
101323.693314
101323.693314
101324.221162
101324.979393
101324.695535
101324.822223
101324.546764
101324.979393
101323.813414
101323.734204
101324.064790
101324.918866
101324.385257
101324.546764
101309.573715
101321.405595
101317.742556
101313.959232
101324.756718
101315.805307
101319.649254
101310.056442
101325.000000
101312.320324
101310.991564
101309.573715
101317.742556
101319.649254
101315.805307
101322.901222
101313.959232
101312.320324
101317.742556
101315.805307
101310.991564
101315.805307
101313.959232
101310.991564
101324.042159
101309.573715
101310.056442
101321.405595
101325.000000
101324.042159
101321.405595
101310.056442
101312.320324
101324.756718
101324.042159
101309.573715
101322.901222
101322.901222
101324.756718
101312.320324
101322.901222
101310.056442
101319.649254
101310.991564
101324.756718
101324.042159
101317.742556
101321.405595
101319.649254
101313.959231
101322.187290
101324.344624
101322.275306
101324.024386
101324.024386
101323.676733
101322.445809
101322.445809
101322.986911
101322.688085
101322.986911
101323.323510
101324.344624
101322.187290
101324.955642
101322.445809
101323.676733
101324.617325
101324.825355
101322.688085
101323.323510
101322.275306
101323.323510
101322.986911
101324.825355
101324.344624
101322.688085
101325.000000
101324.825355
101322.275306
101322.688085
101324.617325
101324.617325
101324.955642
101325.000000
101323.676733
101322.187290
101322.187290
101323.323510
101324.955642
101324.344624
101324.617325
101324.024386
101324.955642
101322.445809
101322.275306
101322.986911
101324.825355
101323.676733
101324.024386
101320.413170
101323.931245
101320.556703
101323.409017
101323.409017
101322.842082
101320.834751
101320.834751
101321.717153
101321.229843
101321.717153
101322.266063
101323.931245
101324.927663
101320.413170
101320.834751
101322.842082
101324.715197
101324.375952
101321.229843
101322.266063
101320.556703
101322.266063
101321.717153
101324.715197
101323.931245
101321.229843
101325.000000
101324.715197
101320.556703
101321.229843
101324.375952
101324.375952
101324.927663
101325.000000
101322.842082
101320.413170
101320.413170
101322.266063
101324.927663
101323.931245
101324.375952
101323.409017
101324.927663
101320.834751
101320.556703
101321.717153
101324.715197
101322.842082
101323.409017
101305.607949
101320.481550
101315.876823
101311.120887
101324.694176
101313.441549
101318.273692
101306.214774
101325.000000
101309.060652
101307.390296
101305.607949
101318.273692
101315.876823
101313.441549
101322.361671
101311.120887
101309.060652
101315.876823
101313.441549
101307.390296
101311.120887
101313.441549
101307.390296
101323.795919
101305.607949
101320.481550
101306.214774
101325.000000
101323.795919
101320.481550
101306.214774
101309.060652
101324.694176
101323.795919
101305.607949
101322.361671
101322.361671
101324.694176
101309.060652
101322.361671
101306.214774
101318.273692
101307.390296
101324.694176
101320.481550
101323.795919
101315.876823
101311.120887
101318.273692
101318.322005
101323.443992
101318.530976
101322.683677
101322.683677
101321.858273
101318.935787
101318.935787
101320.220482
101320.220482
101319.511004
101321.019643
101323.443992
101324.894684
101318.322005
101318.935787
101321.858273
101324.585353
101324.091445
101319.511004
101321.019643
101318.530976
101321.019643
101320.220482
101324.585353
101323.443992
101319.511004
101325.000000
101324.585353
101318.530976
101319.511004
101324.091445
101324.091445
101324.894684
101325.000000
101321.858273
101318.322005
101318.322005
101321.019643
101324.894684
101323.443992
101324.091445
101322.683677
101324.894684
101318.935787
101318.530976
101320.220482
101324.585353
101321.858273
101322.683677
101315.859441
101322.870202
101321.829514
101316.145471
101321.829514
101320.699736
101316.699561
101316.699561
101318.457997
101318.457997
101317.486893
101319.551855
101322.870202
101324.855848
101316.699561
101315.859441
101320.699736
101324.432449
101317.486893
101323.756408
101319.551855
101316.145471
101318.457997
101319.551855
101324.432449
101322.870202
101317.486893
101325.000000
101316.145471
101324.432449
101317.486893
101323.756408
101323.756408
101324.855848
101325.000000
101320.699736
101315.859441
101315.859441
101319.551855
101324.855848
101322.870202
101323.756408
101321.829514
101316.699561
101316.145471
101324.855848
101318.457997
101324.432449
101320.699736
101321.829514
101300.979471
101319.403090
101313.699312
101307.808232
101324.621182
101310.682789
101316.668262
101301.731133
101325.000000
101305.256262
101303.187227
101300.979471
101316.668262
101313.699312
101310.682789
101307.808232
101321.731957
101305.256262
101313.699312
101310.682789
101303.187227
101307.808232
101310.682789
101303.187227
101323.508530
101300.979471
101319.403090
101301.731133
101325.000000
101323.508530
101301.731133
101319.403090
101305.256262
101324.621182
101323.508530
101300.979471
101321.731957
101321.731957
101321.731957
101305.256262
101324.621182
101301.731133
101303.187227
101316.668262
101324.621182
101319.403090
101323.508530
101313.699312
101307.808232
101316.668262
101312.965454
101322.195887
101320.825709
101313.342045
101320.825709
101319.338232
101314.071564
101314.071564
101316.386738
101316.386738
101315.108173
101317.826921
101322.195887
101324.810208
101314.071564
101312.965454
101319.338232
101324.252757
101315.108173
101323.362675
101317.826921
101316.386738
101313.342045
101317.826921
101324.252757
101322.195887
101315.108173
101325.000000
101313.342045
101324.252757
101315.108173
101323.362675
101323.362675
101324.810208
101325.000000
101319.338232
101312.965454
101312.965454
101317.826921
101323.362675
101322.195887
101324.810208
101320.825709
101314.071564
101313.342045
101316.386738
101324.810208
101324.252757
101319.338232
101320.825709
101309.573715
101321.405595
101319.649254
101319.649254
101317.742556
101310.056442
101310.991564
101310.991564
101313.959232
101313.959232
101312.320324
101315.805307
101321.405595
101324.756718
101310.991564
101309.573715
101317.742556
101324.042159
101312.320324
101322.901222
101315.805307
101313.959232
101310.056442
101324.042159
101321.405595
101315.805307
101312.320324
101310.056442
101325.000000
101312.320324
101324.042159
101322.901222
101322.901222
101324.756718
101325.000000
101309.573715
101317.742556
101309.573715
101315.805307
101322.901222
101321.405595
101324.756718
101319.649254
101310.991564
101310.056442
101313.959231
101324.756718
101324.042159
101317.742556
101319.649254
101295.610511
101318.152094
101311.173433
101303.965606
101324.536510
101307.482670
101314.805990
101296.530181
101325.000000
101300.843231
101298.311735
101295.610511
101314.805990
101311.173433
101307.482670
101303.965606
101300.843231
101321.001499
101298.311735
101311.173433
101307.482670
101303.965606
101298.311735
101307.482670
101323.175164
101318.152094
101295.610511
101296.530181
101325.000000
101323.175164
101296.530181
101318.152094
101300.843231
101324.536510
101323.175164
101295.610511
101321.001499
101321.001499
101321.001498
101300.843231
101324.536510
101296.530181
101298.311735
101314.805990
101318.152094
101324.536510
101323.175164
101311.173433
101303.965606
101314.805990
101305.607949
101320.481550
101318.273692
101318.273692
101315.876823
101307.390296
101306.214774
101307.390296
101311.120887
101311.120887
101313.441549
101309.060652
101320.481550
101307.390296
101324.694176
101305.607949
101315.876823
101323.795919
101309.060652
101322.361671
101313.441549
101311.120887
101306.214774
101320.481550
101323.795919
101313.441549
101309.060652
101306.214774
101309.060652
101325.000000
101323.795919
101322.361671
101322.361671
101324.694176
101325.000000
101305.607949
101305.607949
101315.876823
101322.361671
101313.441549
101320.481550
101324.694176
101318.273692
101307.390296
101306.214774
101311.120887
101323.795919
101324.694176
101315.876823
101318.273692
101289.412831
101316.708003
101308.257675
101299.529856
101324.438769
101303.788601
101312.656269
101290.526442
101325.000000
101292.683692
101295.749032
101289.412831
101312.656269
101308.257675
101303.788601
101299.529856
101295.749032
101320.158291
101292.683692
101299.529856
101308.257675
101303.788601
101292.683692
101322.790341
101316.708002
101303.788601
101289.412831
101290.526442
101322.790341
101325.000000
101290.526442
101316.708002
101295.749032
101324.438769
101289.412831
101322.790341
101320.158291
101320.158291
101320.158291
101295.749032
101290.526442
101324.438769
101292.683692
101312.656269
101316.708002
101324.438769
101322.790341
101308.257675
101299.529856
101312.656269
101300.979471
101319.403090
101316.668262
101316.668262
101313.699312
101303.187227
101301.731133
101303.187227
101307.808232
101307.808232
101310.682789
101305.256262
101319.403090
101303.187227
101324.621182
101313.699312
101323.508530
101300.979471
101305.256262
101321.731957
101310.682789
101307.808232
101319.403090
101301.731133
101323.508530
101305.256262
101310.682789
101305.256262
101301.731133
101325.000000
101323.508530
101321.731957
101321.731957
101324.621182
101325.000000
101300.979471
101300.979471
101313.699312
101321.731957
101310.682789
101319.403090
101324.621182
101303.187227
101316.668262
101301.731133
101307.808232
101323.508530
101324.621182
101313.699312
101316.668262
101295.610511
101318.152094
101314.805990
101298.311735
101311.173433
101314.805990
101296.530181
101298.311735
101303.965606
101303.965606
101307.482670
101318.152094
101300.843231
101298.311735
101324.536510
101311.173433
101323.175164
101295.610511
101300.843231
101307.482670
101303.965606
101321.001499
101318.152094
101296.530181
101323.175164
101300.843231
101300.843231
101307.482670
101296.530181
101325.000000
101323.175164
101321.001499
101321.001499
101324.536510
101295.610511
101295.610511
101325.000000
101321.001499
101311.173433
101307.482670
101318.152094
101324.536510
101298.311735
101303.965606
101296.530181
101314.805990
101323.175164
101324.536510
101311.173433
101314.805990
101282.292406
101315.048906
101304.907803
101294.433686
101299.544538
101324.326476
101310.186485
101283.628833
101325.000000
101286.217713
101289.896379
101310.186485
101282.292406
101304.907802
101299.544538
101289.896379
101294.433686
101319.189542
101286.217713
101294.433686
101286.217713
101304.907802
101315.048906
101299.544538
101322.348223
101282.292406
101299.544538
101283.628833
101322.348223
101325.000000
101283.628833
101315.048906
101289.896379
101324.326476
101282.292406
101322.348223
101319.189542
101319.189542
101319.189542
101289.896379
101283.628832
101286.217713
101324.326476
101315.048906
101310.186485
101324.326476
101322.348223
101294.433686
101304.907802
101310.186485
101289.412831
101316.708003
101312.656269
101292.683692
101308.257675
101312.656269
101290.526442
101292.683692
101299.529856
101299.529856
101303.788601
101316.708002
101292.683692
101295.749032
101324.438769
101322.790341
101308.257675
101295.749032
101289.412831
101299.529856
101303.788601
101316.708002
101320.158291
101295.749032
101322.790341
101295.749032
101290.526442
101303.788601
101290.526442
101320.158291
101320.158291
101325.000000
101322.790341
101324.438769
101289.412831
101289.412831
101320.158291
101325.000000
101308.257675
101316.708002
101303.788601
101324.438769
101292.683692
101299.529856
101290.526442
101312.656269
101322.790341
101324.438769
101308.257675
101312.656269
101274.136498
101313.148536
101301.070777
101288.596409
101294.683286
101324.197852
101307.357534
101275.728143
101325.000000
101307.357534
101301.070777
101278.811424
101283.192608
101274.136497
101283.192608
101294.683286
101288.596409
101278.811424
101288.596409
101318.079914
101313.148536
101278.811424
101321.841811
101301.070777
101294.683286
101274.136497
101294.683286
101321.841811
101275.728143
101325.000000
101275.728143
101313.148536
101283.192608
101324.197852
101318.079914
101274.136497
101318.079914
101321.841811
101283.192608
101318.079914
101275.728143
101278.811424
101324.197852
101313.148536
101307.357534
101324.197852
101288.596409
101321.841811
101301.070777
101307.357534
101282.292406
101315.048906
101310.186485
101286.217713
101304.907802
101310.186485
101283.628833
101294.433686
101286.217713
101299.544538
101294.433686
101315.048906
101286.217713
101322.348223
101324.326476
101304.907802
101289.896379
101289.896379
101282.292406
101294.433686
101299.544538
101289.896379
101315.048906
101289.896379
101322.348223
101319.189542
101283.628833
101283.628833
101299.544538
101319.189542
101319.189542
101322.348223
101325.000000
101324.326476
101319.189542
101282.292406
101282.292406
101325.000000
101315.048906
101304.907802
101299.544538
101286.217713
101324.326476
101294.433686
101283.628832
101310.186485
101322.348223
101324.326476
101304.907802
101310.186485
101264.900465
101310.996492
101296.725597
101281.986075
101289.178235
101324.052194
101304.153932
101266.781128
101325.000000
101304.153932
101296.725597
101275.601027
101289.178235
101281.986075
101270.424287
101264.900464
101275.601027
101270.424286
101281.986075
101310.996492
101270.424286
101316.823332
101321.268332
101264.900464
101296.725597
101289.178235
101289.178235
101321.268332
101266.781128
101325.000000
101266.781128
101310.996492
101275.601026
101316.823332
101324.052194
101264.900464
101275.601026
101316.823332
101321.268332
101316.823332
101270.424286
101266.781128
101310.996492
101324.052194
101304.153932
101281.986074
101324.052194
101321.268332
101296.725597
101304.153932
101274.136498
101307.357534
101313.148536
101278.811424
101301.070777
101307.357534
101275.728143
101288.596409
101294.683286
101278.811424
101313.148536
101288.596409
101278.811424
101321.841811
101301.070777
101324.197852
101283.192608
101283.192608
101274.136497
101283.192608
101288.596409
101294.683286
101313.148536
101283.192608