# vtk DataFile Version 3.0
Time Step 32, Physical Time = 0.000320s, Residual = 7.26e-03
ASCII
DATASET UNSTRUCTURED_GRID
POINTS 5000 float
0.318712 0.385257 0.000000
-0.318712 0.385257 0.000000
-0.318712 -0.385257 0.000000
0.318712 -0.385257 0.000000
0.093691 0.491144 0.000000
-0.093691 0.491144 0.000000
-0.093691 -0.491144 0.000000
0.093691 -0.491144 0.000000
0.404508 0.293893 0.000000
-0.404508 0.293893 0.000000
-0.404508 -0.293893 0.000000
0.404508 -0.293893 0.000000
0.438153 0.240877 0.000000
-0.438153 0.240877 0.000000
-0.438153 -0.240877 0.000000
0.438153 -0.240877 0.000000
0.500000 0.000000 0.000000
-0.500000 -0.000000 0.000000
0.364484 0.342274 0.000000
-0.364484 0.342274 0.000000
-0.364484 -0.342274 0.000000
0.364484 -0.342274 0.000000
0.496057 0.062667 0.000000
-0.496057 0.062667 0.000000
-0.496057 -0.062667 0.000000
0.496057 -0.062667 0.000000
0.212890 0.452414 0.000000
-0.212890 0.452414 0.000000
-0.212890 -0.452414 0.000000
0.212890 -0.452414 0.000000
0.154508 0.475528 0.000000
-0.154508 0.475528 0.000000
-0.154508 -0.475528 0.000000
0.154508 -0.475528 0.000000
0.267913 0.422164 0.000000
-0.267913 0.422164 0.000000
-0.267913 -0.422164 0.000000
0.267913 -0.422164 0.000000
0.031395 0.499013 0.000000
-0.031395 0.499013 0.000000
-0.031395 -0.499013 0.000000
0.031395 -0.499013 0.000000
0.464888 0.184062 0.000000
-0.464888 0.184062 0.000000
-0.464888 -0.184062 0.000000
0.464888 -0.184062 0.000000
0.484292 0.124345 0.000000
-0.484292 0.124345 0.000000
-0.484292 -0.124345 0.000000
0.484292 -0.124345 0.000000
-0.031454 0.499951 0.000000
0.438977 0.241329 0.000000
-0.268417 0.422957 0.000000
0.365169 0.342917 0.000000
-0.496990 -0.062784 0.000000
0.319311 -0.385981 0.000000
0.405269 0.294445 0.000000
-0.093867 0.492067 0.000000
0.500940 -0.000000 0.000000
-0.213290 0.453264 0.000000
-0.154799 0.476422 0.000000
0.031454 0.499951 0.000000
0.465762 0.184408 0.000000
0.319311 0.385981 0.000000
0.365169 -0.342917 0.000000
0.405269 -0.294445 0.000000
-0.365169 0.342917 0.000000
-0.319311 0.385981 0.000000
0.268417 0.422957 0.000000
0.213290 0.453264 0.000000
-0.319311 -0.385981 0.000000
0.154799 -0.476422 0.000000
-0.485202 -0.124579 0.000000
0.154799 0.476422 0.000000
0.268417 -0.422957 0.000000
0.093867 0.492067 0.000000
-0.031454 -0.499951 0.000000
-0.500940 0.000000 0.000000
0.438977 -0.241329 0.000000
-0.438977 -0.241329 0.000000
0.093867 -0.492067 0.000000
-0.485202 0.124579 0.000000
0.485202 0.124579 0.000000
-0.496990 0.062784 0.000000
0.213290 -0.453264 0.000000
0.031454 -0.499951 0.000000
0.496990 -0.062784 0.000000
0.465762 -0.184408 0.000000
-0.465762 -0.184408 0.000000
-0.213290 -0.453264 0.000000
-0.093867 -0.492067 0.000000
-0.405269 -0.294445 0.000000
0.496990 0.062784 0.000000
0.485202 -0.124579 0.000000
-0.154799 -0.476422 0.000000
-0.365169 -0.342917 0.000000
-0.465762 0.184408 0.000000
-0.438977 0.241329 0.000000
-0.405269 0.294445 0.000000
-0.268417 -0.422957 0.000000
-0.031523 0.501039 0.000000
0.439932 0.241854 0.000000
-0.269001 0.423877 0.000000
0.365964 0.343663 0.000000
-0.498071 -0.062921 0.000000
0.320005 -0.386820 0.000000
0.406150 0.295085 0.000000
-0.094071 0.493137 0.000000
0.502029 -0.000000 0.000000
-0.213754 0.454250 0.000000
-0.155136 0.477458 0.000000
0.031523 0.501039 0.000000
0.466775 0.184809 0.000000
0.365964 -0.343663 0.000000
0.406150 -0.295085 0.000000
0.320005 0.386820 0.000000
-0.365964 0.343663 0.000000
-0.320005 0.386820 0.000000
0.269001 0.423877 0.000000
0.213754 0.454250 0.000000
-0.320005 -0.386820 0.000000
0.155136 -0.477458 0.000000
-0.486257 -0.124850 0.000000
0.155136 0.477458 0.000000
0.269001 -0.423877 0.000000
0.094071 0.493137 0.000000
-0.031523 -0.501039 0.000000
-0.502029 0.000000 0.000000
0.439932 -0.241854 0.000000
-0.439932 -0.241854 0.000000
0.094071 -0.493137 0.000000
-0.486257 0.124850 0.000000
0.486257 0.124850 0.000000
-0.498071 0.062921 0.000000
0.213754 -0.454250 0.000000
0.031523 -0.501039 0.000000
0.466775 -0.184809 0.000000
0.498071 -0.062921 0.000000
-0.466775 -0.184809 0.000000
-0.213754 -0.454250 0.000000
-0.094071 -0.493137 0.000000
-0.406150 -0.295085 0.000000
0.498071 0.062921 0.000000
-0.155136 -0.477458 0.000000
0.486257 -0.124850 0.000000
-0.365964 -0.343663 0.000000
-0.466775 0.184809 0.000000
-0.439932 0.241854 0.000000
-0.406150 0.295085 0.000000
-0.269001 -0.423877 0.000000
-0.031604 0.502329 0.000000
0.441064 0.242477 0.000000
-0.269693 0.424969 0.000000
0.366906 0.344547 0.000000
-0.499353 -0.063083 0.000000
0.320829 -0.387816 0.000000
0.407196 0.295845 0.000000
-0.094313 0.494407 0.000000
0.503322 -0.000000 0.000000
-0.214304 0.455419 0.000000
-0.155535 0.478688 0.000000
0.031604 0.502329 0.000000
0.467977 0.185285 0.000000
0.366906 -0.344547 0.000000
0.407196 -0.295845 0.000000
0.320829 0.387816 0.000000
0.269693 0.424969 0.000000
-0.366906 0.344547 0.000000
-0.320829 0.387816 0.000000
0.214304 0.455419 0.000000
-0.320829 -0.387816 0.000000
0.155535 -0.478688 0.000000
-0.487509 -0.125171 0.000000
0.155535 0.478688 0.000000
0.269693 -0.424969 0.000000
-0.031604 -0.502329 0.000000
0.094313 0.494407 0.000000
-0.503322 0.000000 0.000000
0.441064 -0.242477 0.000000
-0.441064 -0.242477 0.000000
-0.487509 0.125171 0.000000
0.094313 -0.494407 0.000000
0.487509 0.125171 0.000000
-0.499353 0.063083 0.000000
0.214304 -0.455419 0.000000
0.031604 -0.502329 0.000000
0.467977 -0.185285 0.000000
0.499353 -0.063083 0.000000
-0.467977 -0.185285 0.000000
-0.214304 -0.455419 0.000000
-0.094313 -0.494407 0.000000
-0.407196 -0.295845 0.000000
0.499353 0.063083 0.000000
-0.155535 -0.478688 0.000000
0.487509 -0.125171 0.000000
-0.467977 0.185285 0.000000
-0.366906 -0.344547 0.000000
-0.441064 0.242477 0.000000
-0.407196 0.295845 0.000000
-0.269693 -0.424969 0.000000
-0.031700 0.503862 0.000000
0.442411 0.243217 0.000000
-0.270517 0.426266 0.000000
0.368026 0.345599 0.000000
-0.500877 -0.063276 0.000000
0.321809 -0.389000 0.000000
0.408439 0.296748 0.000000
-0.094601 0.495916 0.000000
0.504858 -0.000000 0.000000
-0.214958 0.456810 0.000000
-0.156010 0.480149 0.000000
0.031700 0.503862 0.000000
0.469405 0.185851 0.000000
0.368026 -0.345599 0.000000
0.408439 -0.296748 0.000000
0.321809 0.389000 0.000000
0.270517 0.426266 0.000000
-0.368026 0.345599 0.000000
-0.321809 0.389000 0.000000
0.214958 0.456810 0.000000
-0.321809 -0.389000 0.000000
0.156010 -0.480149 0.000000
0.270517 -0.426266 0.000000
-0.488997 -0.125553 0.000000
0.156010 0.480149 0.000000
-0.031700 -0.503862 0.000000
0.094601 0.495916 0.000000
-0.504858 0.000000 0.000000
0.442411 -0.243217 0.000000
-0.442411 -0.243217 0.000000
-0.488997 0.125553 0.000000
0.094601 -0.495916 0.000000
0.488997 0.125553 0.000000
-0.500877 0.063276 0.000000
0.214958 -0.456810 0.000000
0.031700 -0.503862 0.000000
0.469405 -0.185851 0.000000
0.500877 -0.063276 0.000000
-0.469405 -0.185851 0.000000
-0.214958 -0.456810 0.000000
-0.094601 -0.495916 0.000000
-0.408439 -0.296748 0.000000
-0.469405 0.185851 0.000000
0.500877 0.063276 0.000000
-0.156010 -0.480149 0.000000
0.488997 -0.125553 0.000000
-0.368026 -0.345599 0.000000
-0.442411 0.243217 0.000000
-0.408439 0.296748 0.000000
-0.270517 -0.426266 0.000000
-0.031815 0.505686 0.000000
0.444012 0.244098 0.000000
-0.271496 0.427809 0.000000
0.369358 0.346850 0.000000
-0.502691 -0.063505 0.000000
0.322974 -0.390408 0.000000
0.409918 0.297823 0.000000
-0.094943 0.497711 0.000000
0.506686 -0.000000 0.000000
-0.215736 0.458463 0.000000
-0.156575 0.481887 0.000000
0.031815 0.505686 0.000000
0.369358 -0.346850 0.000000
0.409918 -0.297823 0.000000
0.471105 0.186524 0.000000
0.322974 0.390408 0.000000
0.271496 0.427809 0.000000
-0.369358 0.346850 0.000000
-0.322974 0.390408 0.000000
0.215736 0.458463 0.000000
0.156575 -0.481887 0.000000
-0.322974 -0.390408 0.000000
0.271496 -0.427809 0.000000
-0.490768 -0.126008 0.000000
0.156575 0.481887 0.000000
-0.031815 -0.505686 0.000000
0.094943 0.497711 0.000000
-0.506686 0.000000 0.000000
0.444012 -0.244098 0.000000
-0.490768 0.126008 0.000000
-0.444012 -0.244098 0.000000
0.094943 -0.497711 0.000000
0.490768 0.126008 0.000000
-0.502691 0.063505 0.000000
0.215736 -0.458463 0.000000
0.031815 -0.505686 0.000000
0.471105 -0.186524 0.000000
-0.471105 -0.186524 0.000000
0.502691 -0.063505 0.000000
-0.215736 -0.458463 0.000000
-0.094943 -0.497711 0.000000
-0.409918 -0.297823 0.000000
-0.471105 0.186524 0.000000
0.502691 0.063505 0.000000
-0.156575 -0.481887 0.000000
0.490768 -0.126008 0.000000
-0.369358 -0.346850 0.000000
-0.444012 0.244098 0.000000
-0.409918 0.297823 0.000000
-0.271496 -0.427809 0.000000
-0.031952 0.507855 0.000000
0.445917 0.245145 0.000000
-0.272661 0.429644 0.000000
0.370943 0.348338 0.000000
-0.504847 -0.063777 0.000000
0.324359 -0.392083 0.000000
0.411676 0.299100 0.000000
-0.095351 0.499846 0.000000
0.508859 -0.000000 0.000000
-0.216662 0.460430 0.000000
-0.157246 0.483954 0.000000
0.031952 0.507855 0.000000
0.370943 -0.348338 0.000000
0.411676 -0.299100 0.000000
0.324359 0.392083 0.000000
0.473126 0.187324 0.000000
0.272661 0.429644 0.000000
-0.370943 0.348338 0.000000
-0.324359 0.392083 0.000000
0.216662 0.460430 0.000000
0.157246 -0.483954 0.000000
-0.324359 -0.392083 0.000000
0.272661 -0.429644 0.000000
0.157246 0.483954 0.000000
-0.492873 -0.126548 0.000000
-0.031952 -0.507855 0.000000
0.095351 0.499846 0.000000
0.445917 -0.245145 0.000000
-0.508859 0.000000 0.000000
-0.492873 0.126548 0.000000
-0.445917 -0.245145 0.000000
0.095351 -0.499846 0.000000
-0.504847 0.063777 0.000000
0.216662 -0.460430 0.000000
0.492873 0.126548 0.000000
0.031952 -0.507855 0.000000
0.473126 -0.187324 0.000000
-0.473126 -0.187324 0.000000
0.504847 -0.063777 0.000000
-0.216662 -0.460430 0.000000
-0.095351 -0.499846 0.000000
-0.473126 0.187324 0.000000
-0.411676 -0.299100 0.000000
-0.157246 -0.483954 0.000000
0.504847 0.063777 0.000000
0.492873 -0.126548 0.000000
-0.370943 -0.348338 0.000000
-0.445917 0.245145 0.000000
-0.411676 0.299100 0.000000
-0.272661 -0.429644 0.000000
0.318712 0.385257 0.100000
-0.318712 0.385257 0.100000
[...]
POINT_DATA 5000
SCALARS pressure float 1
LOOKUP_TABLE default
101561.353788
101561.353788
101561.353788
101561.353788
101561.353788
101561.353788
101561.353788
101561.353788
101561.353788
101561.353788
101561.353788
101561.353788
101561.353788
101561.353788
101561.353788
101561.353788
101325.000000
101325.000000
101325.000000
101325.000000
101325.000000
101325.000000
101325.000000
101325.000000
101325.000000
101325.000000
101325.000000
101325.000000
101325.000000
101325.000000
101325.000000
101325.000000
101325.000000
101325.000000
101325.000000
101325.000000
101325.000000
101325.000000
101325.000000
101325.000000
101325.000000
101325.000000
101325.000000
101325.000000
101325.000000
101325.000000
101325.000000
101325.000000
101325.000000
101325.000000
101324.294136
101324.835530
101324.494805
101324.667920
101324.988868
101324.579276
101324.755165
101324.316224
101325.000000
101324.419813
101324.359013
101324.294136
101324.903966
101324.579276
101324.667920
101324.755165
101324.667920
101324.579276
101324.494805
101324.419813
101324.579276
101324.359013
101324.956172
101324.359013
101324.494805
101324.316224
101324.294136
101325.000000
101324.835530
101324.835530
101324.316224
101324.956172
101324.956172
101324.988868
101324.419813
101324.294136
101324.988868
101324.903966
101324.903966
101324.419813
101324.316224
101324.755165
101324.988868
101324.956172
101324.359013
101324.667920
101324.903966
101324.835530
101324.755165
101324.494805
101323.480590
101324.645970
101323.912541
101324.285179
101324.976038
101324.094370
101324.472979
101323.528137
101325.000000
101323.751117
101323.620241
101323.480590
101324.793281
101324.285179
101324.472979
101324.094370
101324.285179
101324.094370
101323.912541
101323.751117
101324.094370
101323.620241
101324.905658
101323.620241
101323.912541
101323.528137
101323.480590
101325.000000
101324.645970
101324.645970
101323.528137
101324.905658
101324.905658
101324.976038
101323.751117
101323.480590
101324.793281
101324.976038
101324.793281
101323.751117
101323.528137
101324.472979
101324.976038
101323.620241
101324.905658
101324.285179
101324.793281
101324.645970
101324.472979
101323.912541
101322.522221
101324.422665
101323.226625
101323.834305
101324.960924
101323.523143
101324.140560
101322.599757
101325.000000
101322.963383
101322.749957
101322.522221
101324.662893
101323.834305
101324.140560
101323.523143
101323.226625
101323.834305
101323.523143
101322.963383
101323.523143
101322.749957
101324.846151
101322.749957
101323.226625
101322.522221
101322.599757
101325.000000
101324.422665
101324.422665
101324.846151
101322.599757
101324.846151
101324.960924
101322.963383
101322.522221
101324.662893
101324.960924
101324.662893
101322.963383
101322.599757
101324.140560
101324.960924
101322.749957
101324.846151
101324.662893
101323.834305
101324.422665
101324.140560
101323.226625
101321.392586
101324.159454
101322.418133
101323.302857
101324.943109
101322.849835
101323.748736
101321.505471
101325.000000
101322.034876
101321.724148
101321.392586
101324.509204
101323.302857
101323.748736
101322.849835
101322.418133
101323.302857
101322.849835
101322.034876
101322.849835
101321.724148
101322.418133
101324.776010
101321.724148
101321.392586
101321.505471
101325.000000
101324.159454
101324.159454
101324.776010
101321.505471
101324.776010
101324.943109
101322.034876
101321.392586
101324.509204
101324.943109
101324.509204
101322.034876
101321.505471
101323.748736
101324.509204
101324.943109
101321.724148
101324.776010
101323.302857
101324.159454
101323.748736
101322.418133
101320.062323
101323.849495
101321.466048
101322.677023
101324.922130
101322.056944
101323.287322
101320.216835
101325.000000
101320.941463
101320.516151
101320.062323
101322.677023
101323.287322
101324.328219
101322.056944
101321.466048
101322.677023
101322.056944
101320.941463
101320.516151
101322.056944
101321.466048
101324.693412
101320.516151
101320.062323
101320.216835
101325.000000
101323.849495
101324.693412
101323.849495
101320.216835
101324.693412
101324.922130
101320.941463
101320.062323
101324.328219
101324.328219
101324.922130
101320.941463
101320.216835
101323.287322
101324.328219
101324.922130
101320.516151
101324.693412
101322.677023
101323.849495
101323.287322
101321.466048
101318.499009
101323.485235
101320.347166
101321.941546
101324.897475
101321.125145
101322.745072
101318.702441
101325.000000
101319.656493
101319.096523
101318.499009
101321.941546
101322.745072
101321.125145
101324.115527
101320.347166
101321.941546
101321.125145
101319.656493
101319.096523
101321.125145
101320.347166
101319.096523
101324.596344
101318.499009
101318.702441
101323.485235
101325.000000
101324.596344
101323.485235
101318.702441
101324.897475
101319.656493
101324.596344
101318.499009
101324.115527
101324.115527
101324.897475
101319.656493
101318.702441
101324.115527
101322.745072
101319.096523
101324.897475
101324.596344
101321.941546
101323.485235
101322.745072
101320.347166
101561.353788
101561.353788
101561.353788
101561.353788
101561.353788
101561.353788
101561.353788
101561.353788
101561.353788
101561.353788
101561.353788
101561.353788
101561.353788
101561.353788
101561.353788
101561.353788
101325.000000
101325.000000
101325.000000
101325.000000
101325.000000
101325.000000
101325.000000
101325.000000
101325.000000
101325.000000
101325.000000
101325.000000
101325.000000
101325.000000
101325.000000
101325.000000
101325.000000
101325.000000
101325.000000
101325.000000
101325.000000
101325.000000
101325.000000
101325.000000
101325.000000
101325.000000
101325.000000
101325.000000
101325.000000
101325.000000
101325.000000
101325.000000
101325.000000
101325.000000
101324.294136
101324.835530
101324.316224
101324.755165
101324.755165
101324.359013
101324.667920
101324.359013
101324.494805
101324.419813
101324.494805
101324.579276
101324.835530
101324.294136
101324.988868
101324.359013
101324.667920
101324.903966
101324.956172
101324.419813
101324.579276
101324.316224
101324.579276
101324.494805
101324.956172
101324.835530
101325.000000
101324.419813
101324.956172
101324.316224
101324.419813
101324.903966
101324.903966
101325.000000
101324.988868
101324.667920
101324.294136
101324.294136
101324.579276
101324.988868
101324.835530
101324.903966
101324.755165
101324.988868
101324.359013
101324.316224
101324.494805
101324.956172
101324.667920
101324.755165
101316.666811
101323.058323
101321.079571
101319.035842
101324.868581
101320.033081
101322.109558
101316.927578
101325.000000
101318.150513
101317.432725
101316.666811
101321.079571
101322.109558
101320.033081
101323.866252
101319.035842
101318.150513
101321.079571
101320.033081
101317.432725
101320.033081
101319.035842
101317.432725
101324.482580
101316.666811
101316.927578
101323.058323
101325.000000
101324.482580
101323.058323
101316.927577
101318.150513
101324.868581
101324.482580
101316.666811
101323.866252
101323.866252
101324.868581
101318.150513
101323.866252
101316.927577
101322.109558
101317.432725
101324.868581
101324.482580
101321.079571
101323.058323
101322.109558
101319.035841
101323.480590
101324.645970
101323.528137
101324.472979
101324.472979
101324.285179
101323.620241
101323.620241
101323.912541
101323.751117
101323.912541
101324.094370
101324.645970
101323.480590
101324.976038
101323.620241
101324.285179
101324.793281
101324.905658
101323.751117
101324.094370
101323.528137
101324.094370
101323.912541
101324.905658
101324.645970
101323.751117
101325.000000
101324.905658
101323.528137
101323.751117
101324.793281
101324.793281
101324.976038
101325.000000
101324.285179
101323.480590
101323.480590
101324.094370
101324.976038
101324.645970
101324.793281
101324.472979
101324.976038
101323.620241
101323.528137
101323.912541
101324.905658
101324.285179
101324.472979
101322.522221
101324.422665
101322.599757
101324.140560
101324.140560
101323.834305
101322.749957
101322.749957
101323.226625
101322.963383
101323.226625
101323.523143
101324.422665
101324.960924
101322.522221
101322.749957
101323.834305
101324.846151
101324.662893
101322.963383
101323.523143
101322.599757
101323.523143
101323.226625
101324.846151
101324.422665
101322.963383
101325.000000
101324.846151
101322.599757
101322.963383
101324.662893
101324.662893
101324.960924
101325.000000
101323.834305
101322.522221
101322.522221
101323.523143
101324.960924
101324.422665
101324.662893
101324.140560
101324.960924
101322.749957
101322.599757
101323.226625
101324.846151
101323.834305
101324.140560
101314.524528
101322.559160
101320.071713
101317.502584
101324.834796
101318.756193
101321.366488
101314.852331
101325.000000
101316.389657
101315.487341
101314.524527
101321.366488
101320.071713
101318.756193
101323.574790
101317.502584
101316.389657
101320.071713
101318.756193
101315.487341
101317.502584
101318.756193
101315.487341
101324.349563
101314.524527
101322.559160
101314.852331
101325.000000
101324.349563
101322.559160
101314.852331
101316.389657
101324.834796
101324.349563
101314.524527
101323.574790
101323.574790
101324.834796
101316.389657
101323.574790
101314.852331
101321.366488
101315.487341
101324.834796
101322.559160
101324.349563
101320.071713
101317.502584
101321.366488
101321.392586
101324.159454
101321.505471
101323.748736
101323.748736
101323.302857
101321.724148
101321.724148
101322.418133
101322.418133
101322.034876
101322.849835
101324.159454
101324.943109
101321.392586
101321.724148
101323.302857
101324.776010
101324.509204
101322.034876
101322.849835
101321.505471
101322.849835
101322.418133
101324.776010
101324.159454
101322.034876
101325.000000
101324.776010
101321.505471
101322.034876
101324.509204
101324.509204
101324.943109
101325.000000
101323.302857
101321.392586
101321.392586
101322.849835
101324.943109
101324.159454
101324.509204
101323.748736
101324.943109
101321.724148
101321.505471
101322.418133
101324.776010
101323.302857
101323.748736
101320.062323
101323.849495
101323.287322
101320.216835
101323.287322
101322.677023
101320.516151
101320.516151
101321.466048
101321.466048
101320.941463
101322.056944
101323.849495
101324.922130
101320.516151
101320.062323
101322.677023
101324.693412
101320.941463
101324.328219
101322.056944
101320.216835
101321.466048
101322.056944
101324.693412
101323.849495
101320.941463
101325.000000
101320.216835
101324.693412
101320.941463
101324.328219
101324.328219
101324.922130
101325.000000
101322.677023
101320.062323
101320.062323
101322.056944
101324.922130
101323.849495
101324.328219
101323.287322
101320.516151
101320.216835
101324.922130
101321.466048
101324.693412
101322.677023
101323.287322
101312.024251
101321.976582
101318.895434
101315.713108
101324.795365
101317.265926
101320.499244
101312.430294
101325.000000
101314.334548
101313.216868
101312.024251
101320.499244
101318.895434
101317.265926
101315.713108
101323.234622
101314.334548
101318.895434
101317.265926
101313.216868
101315.713108
101317.265926
101313.216868
101324.194317
101312.024251
101321.976582
101312.430294
101325.000000
101324.194317
101312.430294
101321.976582
101314.334548
101324.795365
101324.194317
101312.024251
101323.234622
101323.234622
101323.234622
101314.334548
101324.795365
101312.430294
101313.216868
101320.499244
101324.795365
101321.976582
101324.194317
101318.895434
101315.713108
101320.499244
101318.499009
101323.485235
101322.745072
101318.702441
101322.745072
101321.941546
101319.096523
101319.096523
101320.347166
101320.347166
101319.656493
101321.125145
101323.485235
101324.897475
101319.096523
101318.499009
101321.941546
101324.596344
101319.656493
101324.115527
101321.125145
101320.347166
101318.702441
101321.125145
101324.596344
101323.485235
101319.656493
101325.000000
101318.702441
101324.596344
101319.656493
101324.115527
101324.115527
101324.897475
101325.000000
101321.941546
101318.499009
101318.499009
101321.125145
101324.115527
101323.485235
101324.897475
101322.745072
101319.096523
101318.702441
101320.347166
101324.897475
101324.596344
101321.941546
101322.745072
101316.666811
101323.058323
101322.109558
101322.109558
101321.079571
101316.927578
101317.432725
101317.432725
101319.035842
101319.035842
101318.150513
101320.033081
101323.058323
101324.868581
101317.432725
101316.666811
101321.079571
101324.482580
101318.150513
101323.866252
101320.033081
101319.035842
101316.927578
101324.482580
101323.058323
101320.033081
101318.150513
101316.927577
101325.000000
101318.150513
101324.482580
101323.866252
101323.866252
101324.868581
101325.000000
101316.666811
101321.079571
101316.666811
101320.033081
101323.866252
101323.058323
101324.868581
101322.109558
101317.432725
101316.927577
101319.035841
101324.868581
101324.482580
101321.079571
101322.109558
101309.123970
101321.300802
101317.530969
101313.637344
101324.749626
101315.537241
101319.493255
101309.620770
101325.000000
101311.950655
101310.583155
101309.123970
101319.493255
101317.530969
101315.537241
101313.637344
101311.950655
101322.840033
101310.583155
101317.530969
101315.537241
101313.637344
101310.583155
101315.537241
101324.014234
101321.300801
101309.123970
101309.620770
101325.000000
101324.014234
101309.620770
101321.300801
101311.950655
101324.749626
101324.014234
101309.123970
101322.840033
101322.840033
101322.840033
101311.950655
101324.749626
101309.620770
101310.583155
101319.493255
101321.300801
101324.749626
101324.014234
101317.530969
101313.637344
101319.493255
101314.524527
101322.559160
101321.366488
101321.366488
101320.071713
101315.487341
101314.852331
101315.487341
101317.502584
101317.502584
101318.756193
101316.389657
101322.559160
101315.487341
101324.834796
101314.524527
101320.071713
101324.349563
101316.389657
101323.574790
101318.756193
101317.502584
101314.852331
101322.559160
101324.349563
101318.756193
101316.389657
101314.852331
101316.389657
101325.000000
101324.349563
101323.574790
101323.574790
101324.834796
101325.000000
101314.524527
101314.524527
101320.071713
101323.574790
101318.756193
101322.559160
101324.834796
101321.366488
101315.487341
101314.852331
101317.502584
101324.349563
101324.834796
101320.071713
101321.366488
101305.776020
101320.520712
101315.955894
101311.241177
101324.696826
101313.541727
101318.331989
101306.377586
101325.000000
101307.542919
101309.198798
101305.776020
101318.331989
101315.955894
101313.541727
101311.241177
101309.198798
101322.384537
101307.542919
101311.241177
101315.955894
101313.541727
101307.542919
101323.806355
101320.520711
101313.541727
101305.776020
101306.377586
101323.806355
101325.000000
101306.377586
101320.520711
101309.198798
101324.696826
101305.776020
101323.806355
101322.384537
101322.384537
101322.384537
101309.198798
101306.377586
101324.696826
101307.542919
101318.331989
101320.520711
101324.696826
101323.806355
101315.955894
101311.241177
101318.331989
101312.024251
101321.976582
101320.499244
101320.499244
101318.895434
101313.216868
101312.430294
101313.216868
101315.713108
101315.713108
101317.265926
101314.334548
101321.976582
101313.216868
101324.795365
101318.895434
101324.194317
101312.024251
101314.334548
101323.234622
101317.265926
101315.713108
101321.976582
101312.430294
101324.194317
101314.334548
101317.265926
101314.334548
101312.430294
101325.000000
101324.194317
101323.234622
101323.234622
101324.795365
101325.000000
101312.024251
101312.024251
101318.895434
101323.234622
101317.265926
101321.976582
101324.795365
101313.216868
101320.499244
101312.430294
101315.713108
101324.194317
101324.795365
101318.895434
101320.499244
101309.123970
101321.300802
101319.493255
101310.583155
101317.530969
101319.493255
101309.620770
101310.583155
101313.637344
101313.637344
101315.537241
101321.300801
101311.950655
101310.583155
101324.749626
101317.530969
101324.014234
101309.123970
101311.950655
101315.537241
101313.637344
101322.840033
101321.300801
101309.620770
101324.014234
101311.950655
101311.950655
101315.537241
101309.620770
101325.000000
101324.014234
101322.840033
101322.840033
101324.749626
101309.123970
101309.123970
101325.000000
101322.840033
101317.530969
101315.537241
101321.300801
101324.749626
101310.583155
101313.637344
101309.620770
101319.493255
101324.014234
101324.749626
101317.530969
101319.493255
101301.929608
101319.624477
101314.146313
101308.488256
101311.249109
101324.636166
101316.997826
101302.651538
101325.000000
101304.050036
101306.037230
101316.997826
101301.929608
101314.146313
101311.249109
101306.037230
101308.488256
101321.861225
101304.050036
101308.488256
101304.050036
101314.146313
101319.624477
101311.249109
101323.567526
101301.929608
101311.249109
101302.651538
101323.567526
101325.000000
101302.651538
101319.624477
101306.037230
101324.636166
101301.929608
101323.567526
101321.861225
101321.861225
101321.861225
101306.037230
101302.651538
101304.050036
101324.636166
101319.624477
101316.997826
101324.636166
101323.567526
101308.488256
101314.146313
101316.997826
101305.776020
101320.520712
101318.331989
101307.542919
101315.955894
101318.331989
101306.377586
101307.542919
101311.241177
101311.241177
101313.541727
101320.520711
101307.542919
101309.198798
101324.696826
101323.806355
101315.955894
101309.198798
101305.776020
101311.241177
101313.541727
101320.520711
101322.384537
101309.198798
101323.806355
101309.198798
101306.377586
101313.541727
101306.377586
101322.384537
101322.384537
101325.000000
101323.806355
101324.696826
101305.776020
101305.776020
101322.384537
101325.000000
101315.955894
101320.520711
101313.541727
101324.696826
101307.542919
101311.241177
101306.377586
101318.331989
101323.806355
101324.696826
101315.955894
101318.331989
101297.523834
101318.597909
101312.073574
101305.334993
101308.623088
101324.566684
101315.469643
101298.383631
101325.000000
101315.469643
101312.073574
101300.049202
101302.415892
101297.523834
101302.415892
101308.623088
101305.334993
101300.049202
101305.334993
101321.261810
101318.597909
101300.049202
101323.293965
101312.073574
101308.623088
101297.523834
101308.623088
101323.293965
101298.383631
101325.000000
101298.383631
101318.597909
101302.415892
101324.566684
101321.261810
101297.523834
101321.261810
101323.293965
101302.415892
101321.261810
101298.383631
101300.049202
101324.566684
101318.597909
101315.469643
101324.566684
101305.334993
101323.293965
101312.073574
101315.469643
101301.929608
101319.624477
101316.997826
101304.050036
101314.146313
101316.997826
101302.651538
101308.488256
101304.050036
101311.249109
101308.488256
101319.624477
101304.050036
101323.567526
101324.636166
101314.146313
101306.037230
101306.037230
101301.929608
101308.488256
101311.249109
101306.037230
101319.624477
101306.037230
101323.567526
101321.861225
101302.651538
101302.651538
101311.249109
101321.861225
101321.861225
101323.567526
101325.000000
101324.636166
101321.861225
101301.929608
101301.929608
101325.000000
101319.624477
101314.146313
101311.249109
101304.050036
101324.636166
101308.488256
101302.651538
101316.997826
101323.567526
101324.636166
101314.146312
101316.997826
101292.534583
101317.435387
101309.726333
101301.764129
101305.649292
101324.488001
101313.739076
101293.550506
101325.000000
101313.739076
101309.726333
101298.314964
101305.649292
101301.764129
101295.518519
101292.534583
101298.314964
101295.518519
101301.764129
101317.435387
101295.518519
101320.583012
101322.984175
101292.534583
101309.726333
101305.649292
101305.649292
101322.984175
101293.550506
101325.000000
101293.550506
101317.435387
101298.314964
101320.583012
101324.488001
101292.534583
101298.314964
101320.583012
101322.984175
101320.583012
101295.518519
101293.550506
101317.435387
101324.488001
101313.739076
101301.764129
101324.488001
101322.984175
101309.726333
101313.739076
101297.523834
101315.469643
101318.597909
101300.049202
101312.073574
101315.469643
101298.383631
101305.334993
101308.623088
101300.049202
101318.597909
101305.334993
101300.049202
101323.293965
101312.073574
101324.566684
101302.415892
101302.415892
101297.523834
101302.415892
101305.334993
101308.623088
101318.597909
101302.415892