# vtk DataFile Version 3.0
Time Step 136, Physical Time = 0.001360s, Residual = 2.57e-03
ASCII
DATASET UNSTRUCTURED_GRID
POINTS 5000 float
0.318712 0.385257 0.000000
-0.318712 0.385257 0.000000
-0.318712 -0.385257 0.000000
0.318712 -0.385257 0.000000
0.093691 0.491144 0.000000
-0.093691 0.491144 0.000000
-0.093691 -0.491144 0.000000
0.093691 -0.491144 0.000000
0.404508 0.293893 0.000000
-0.404508 0.293893 0.000000
-0.404508 -0.293893 0.000000
0.404508 -0.293893 0.000000
0.438153 0.240877 0.000000
-0.438153 0.240877 0.000000
-0.438153 -0.240877 0.000000
0.438153 -0.240877 0.000000
0.500000 0.000000 0.000000
-0.500000 -0.000000 0.000000
0.364484 0.342274 0.000000
-0.364484 0.342274 0.000000
-0.364484 -0.342274 0.000000
0.364484 -0.342274 0.000000
0.496057 0.062667 0.000000
-0.496057 0.062667 0.000000
-0.496057 -0.062667 0.000000
0.496057 -0.062667 0.000000
0.212890 0.452414 0.000000
-0.212890 0.452414 0.000000
-0.212890 -0.452414 0.000000
0.212890 -0.452414 0.000000
0.154508 0.475528 0.000000
-0.154508 0.475528 0.000000
-0.154508 -0.475528 0.000000
0.154508 -0.475528 0.000000
0.267913 0.422164 0.000000
-0.267913 0.422164 0.000000
-0.267913 -0.422164 0.000000
0.267913 -0.422164 0.000000
0.031395 0.499013 0.000000
-0.031395 0.499013 0.000000
-0.031395 -0.499013 0.000000
0.031395 -0.499013 0.000000
0.464888 0.184062 0.000000
-0.464888 0.184062 0.000000
-0.464888 -0.184062 0.000000
0.464888 -0.184062 0.000000
0.484292 0.124345 0.000000
-0.484292 0.124345 0.000000
-0.484292 -0.124345 0.000000
0.484292 -0.124345 0.000000
-0.031454 0.499951 0.000000
0.438977 0.241329 0.000000
-0.268417 0.422957 0.000000
0.365169 0.342917 0.000000
-0.496990 -0.062784 0.000000
0.319311 -0.385981 0.000000
0.405269 0.294445 0.000000
-0.093867 0.492067 0.000000
0.500940 -0.000000 0.000000
-0.213290 0.453264 0.000000
-0.154799 0.476422 0.000000
0.031454 0.499951 0.000000
0.465762 0.184408 0.000000
0.319311 0.385981 0.000000
0.365169 -0.342917 0.000000
0.405269 -0.294445 0.000000
-0.365169 0.342917 0.000000
-0.319311 0.385981 0.000000
0.268417 0.422957 0.000000
0.213290 0.453264 0.000000
-0.319311 -0.385981 0.000000
0.154799 -0.476422 0.000000
-0.485202 -0.124579 0.000000
0.154799 0.476422 0.000000
0.268417 -0.422957 0.000000
0.093867 0.492067 0.000000
-0.031454 -0.499951 0.000000
-0.500940 0.000000 0.000000
0.438977 -0.241329 0.000000
-0.438977 -0.241329 0.000000
0.093867 -0.492067 0.000000
-0.485202 0.124579 0.000000
0.485202 0.124579 0.000000
-0.496990 0.062784 0.000000
0.213290 -0.453264 0.000000
0.031454 -0.499951 0.000000
0.496990 -0.062784 0.000000
0.465762 -0.184408 0.000000
-0.465762 -0.184408 0.000000
-0.213290 -0.453264 0.000000
-0.093867 -0.492067 0.000000
-0.405269 -0.294445 0.000000
0.496990 0.062784 0.000000
0.485202 -0.124579 0.000000
-0.154799 -0.476422 0.000000
-0.365169 -0.342917 0.000000
-0.465762 0.184408 0.000000
-0.438977 0.241329 0.000000
-0.405269 0.294445 0.000000
-0.268417 -0.422957 0.000000
-0.031523 0.501039 0.000000
0.439932 0.241854 0.000000
-0.269001 0.423877 0.000000
0.365964 0.343663 0.000000
-0.498071 -0.062921 0.000000
0.320005 -0.386820 0.000000
0.406150 0.295085 0.000000
-0.094071 0.493137 0.000000
0.502029 -0.000000 0.000000
-0.213754 0.454250 0.000000
-0.155136 0.477458 0.000000
0.031523 0.501039 0.000000
0.466775 0.184809 0.000000
0.365964 -0.343663 0.000000
0.406150 -0.295085 0.000000
0.320005 0.386820 0.000000
-0.365964 0.343663 0.000000
-0.320005 0.386820 0.000000
0.269001 0.423877 0.000000
0.213754 0.454250 0.000000
-0.320005 -0.386820 0.000000
0.155136 -0.477458 0.000000
-0.486257 -0.124850 0.000000
0.155136 0.477458 0.000000
0.269001 -0.423877 0.000000
0.094071 0.493137 0.000000
-0.031523 -0.501039 0.000000
-0.502029 0.000000 0.000000
0.439932 -0.241854 0.000000
-0.439932 -0.241854 0.000000
0.094071 -0.493137 0.000000
-0.486257 0.124850 0.000000
0.486257 0.124850 0.000000
-0.498071 0.062921 0.000000
0.213754 -0.454250 0.000000
0.031523 -0.501039 0.000000
0.466775 -0.184809 0.000000
0.498071 -0.062921 0.000000
-0.466775 -0.184809 0.000000
-0.213754 -0.454250 0.000000
-0.094071 -0.493137 0.000000
-0.406150 -0.295085 0.000000
0.498071 0.062921 0.000000
-0.155136 -0.477458 0.000000
0.486257 -0.124850 0.000000
-0.365964 -0.343663 0.000000
-0.466775 0.184809 0.000000
-0.439932 0.241854 0.000000
-0.406150 0.295085 0.000000
-0.269001 -0.423877 0.000000
-0.031604 0.502329 0.000000
0.441064 0.242477 0.000000
-0.269693 0.424969 0.000000
0.366906 0.344547 0.000000
-0.499353 -0.063083 0.000000
0.320829 -0.387816 0.000000
0.407196 0.295845 0.000000
-0.094313 0.494407 0.000000
0.503322 -0.000000 0.000000
-0.214304 0.455419 0.000000
-0.155535 0.478688 0.000000
0.031604 0.502329 0.000000
0.467977 0.185285 0.000000
0.366906 -0.344547 0.000000
0.407196 -0.295845 0.000000
0.320829 0.387816 0.000000
0.269693 0.424969 0.000000
-0.366906 0.344547 0.000000
-0.320829 0.387816 0.000000
0.214304 0.455419 0.000000
-0.320829 -0.387816 0.000000
0.155535 -0.478688 0.000000
-0.487509 -0.125171 0.000000
0.155535 0.478688 0.000000
0.269693 -0.424969 0.000000
-0.031604 -0.502329 0.000000
0.094313 0.494407 0.000000
-0.503322 0.000000 0.000000
0.441064 -0.242477 0.000000
-0.441064 -0.242477 0.000000
-0.487509 0.125171 0.000000
0.094313 -0.494407 0.000000
0.487509 0.125171 0.000000
-0.499353 0.063083 0.000000
0.214304 -0.455419 0.000000
0.031604 -0.502329 0.000000
0.467977 -0.185285 0.000000
0.499353 -0.063083 0.000000
-0.467977 -0.185285 0.000000
-0.214304 -0.455419 0.000000
-0.094313 -0.494407 0.000000
-0.407196 -0.295845 0.000000
0.499353 0.063083 0.000000
-0.155535 -0.478688 0.000000
0.487509 -0.125171 0.000000
-0.467977 0.185285 0.000000
-0.366906 -0.344547 0.000000
-0.441064 0.242477 0.000000
-0.407196 0.295845 0.000000
-0.269693 -0.424969 0.000000
-0.031700 0.503862 0.000000
0.442411 0.243217 0.000000
-0.270517 0.426266 0.000000
0.368026 0.345599 0.000000
-0.500877 -0.063276 0.000000
0.321809 -0.389000 0.000000
0.408439 0.296748 0.000000
-0.094601 0.495916 0.000000
0.504858 -0.000000 0.000000
-0.214958 0.456810 0.000000
-0.156010 0.480149 0.000000
0.031700 0.503862 0.000000
0.469405 0.185851 0.000000
0.368026 -0.345599 0.000000
0.408439 -0.296748 0.000000
0.321809 0.389000 0.000000
0.270517 0.426266 0.000000
-0.368026 0.345599 0.000000
-0.321809 0.389000 0.000000
0.214958 0.456810 0.000000
-0.321809 -0.389000 0.000000
0.156010 -0.480149 0.000000
0.270517 -0.426266 0.000000
-0.488997 -0.125553 0.000000
0.156010 0.480149 0.000000
-0.031700 -0.503862 0.000000
0.094601 0.495916 0.000000
-0.504858 0.000000 0.000000
0.442411 -0.243217 0.000000
-0.442411 -0.243217 0.000000
-0.488997 0.125553 0.000000
0.094601 -0.495916 0.000000
0.488997 0.125553 0.000000
-0.500877 0.063276 0.000000
0.214958 -0.456810 0.000000
0.031700 -0.503862 0.000000
0.469405 -0.185851 0.000000
0.500877 -0.063276 0.000000
-0.469405 -0.185851 0.000000
-0.214958 -0.456810 0.000000
-0.094601 -0.495916 0.000000
-0.408439 -0.296748 0.000000
-0.469405 0.185851 0.000000
0.500877 0.063276 0.000000
-0.156010 -0.480149 0.000000
0.488997 -0.125553 0.000000
-0.368026 -0.345599 0.000000
-0.442411 0.243217 0.000000
-0.408439 0.296748 0.000000
-0.270517 -0.426266 0.000000
-0.031815 0.505686 0.000000
0.444012 0.244098 0.000000
-0.271496 0.427809 0.000000
0.369358 0.346850 0.000000
-0.502691 -0.063505 0.000000
0.322974 -0.390408 0.000000
0.409918 0.297823 0.000000
-0.094943 0.497711 0.000000
0.506686 -0.000000 0.000000
-0.215736 0.458463 0.000000
-0.156575 0.481887 0.000000
0.031815 0.505686 0.000000
0.369358 -0.346850 0.000000
0.409918 -0.297823 0.000000
0.471105 0.186524 0.000000
0.322974 0.390408 0.000000
0.271496 0.427809 0.000000
-0.369358 0.346850 0.000000
-0.322974 0.390408 0.000000
0.215736 0.458463 0.000000
0.156575 -0.481887 0.000000
-0.322974 -0.390408 0.000000
0.271496 -0.427809 0.000000
-0.490768 -0.126008 0.000000
0.156575 0.481887 0.000000
-0.031815 -0.505686 0.000000
0.094943 0.497711 0.000000
-0.506686 0.000000 0.000000
0.444012 -0.244098 0.000000
-0.490768 0.126008 0.000000
-0.444012 -0.244098 0.000000
0.094943 -0.497711 0.000000
0.490768 0.126008 0.000000
-0.502691 0.063505 0.000000
0.215736 -0.458463 0.000000
0.031815 -0.505686 0.000000
0.471105 -0.186524 0.000000
-0.471105 -0.186524 0.000000
0.502691 -0.063505 0.000000
-0.215736 -0.458463 0.000000
-0.094943 -0.497711 0.000000
-0.409918 -0.297823 0.000000
-0.471105 0.186524 0.000000
0.502691 0.063505 0.000000
-0.156575 -0.481887 0.000000
0.490768 -0.126008 0.000000
-0.369358 -0.346850 0.000000
-0.444012 0.244098 0.000000
-0.409918 0.297823 0.000000
-0.271496 -0.427809 0.000000
-0.031952 0.507855 0.000000
0.445917 0.245145 0.000000
-0.272661 0.429644 0.000000
0.370943 0.348338 0.000000
-0.504847 -0.063777 0.000000
0.324359 -0.392083 0.000000
0.411676 0.299100 0.000000
-0.095351 0.499846 0.000000
0.508859 -0.000000 0.000000
-0.216662 0.460430 0.000000
-0.157246 0.483954 0.000000
0.031952 0.507855 0.000000
0.370943 -0.348338 0.000000
0.411676 -0.299100 0.000000
0.324359 0.392083 0.000000
0.473126 0.187324 0.000000
0.272661 0.429644 0.000000
-0.370943 0.348338 0.000000
-0.324359 0.392083 0.000000
0.216662 0.460430 0.000000
0.157246 -0.483954 0.000000
-0.324359 -0.392083 0.000000
0.272661 -0.429644 0.000000
0.157246 0.483954 0.000000
-0.492873 -0.126548 0.000000
-0.031952 -0.507855 0.000000
0.095351 0.499846 0.000000
0.445917 -0.245145 0.000000
-0.508859 0.000000 0.000000
-0.492873 0.126548 0.000000
-0.445917 -0.245145 0.000000
0.095351 -0.499846 0.000000
-0.504847 0.063777 0.000000
0.216662 -0.460430 0.000000
0.492873 0.126548 0.000000
0.031952 -0.507855 0.000000
0.473126 -0.187324 0.000000
-0.473126 -0.187324 0.000000
0.504847 -0.063777 0.000000
-0.216662 -0.460430 0.000000
-0.095351 -0.499846 0.000000
-0.473126 0.187324 0.000000
-0.411676 -0.299100 0.000000
-0.157246 -0.483954 0.000000
0.504847 0.063777 0.000000
0.492873 -0.126548 0.000000
-0.370943 -0.348338 0.000000
-0.445917 0.245145 0.000000
-0.411676 0.299100 0.000000
-0.272661 -0.429644 0.000000
0.318712 0.385257 0.100000
-0.318712 0.385257 0.100000
[...]
POINT_DATA 5000
SCALARS pressure float 1
LOOKUP_TABLE default
101792.062623
101792.062623
101792.062623
101792.062623
101792.062623
101792.062623
101792.062623
101792.062623
101792.062623
101792.062623
101792.062623
101792.062623
101792.062623
101792.062623
101792.062623
101792.062623
101325.000000
101325.000000
101325.000000
101325.000000
101325.000000
101325.000000
101325.000000
101325.000000
101325.000000
101325.000000
101325.000000
101325.000000
101325.000000
101325.000000
101325.000000
101325.000000
101325.000000
101325.000000
101325.000000
101325.000000
101325.000000
101325.000000
101325.000000
101325.000000
101325.000000
101325.000000
101325.000000
101325.000000
101325.000000
101325.000000
101325.000000
101325.000000
101325.000000
101325.000000
101323.605131
101324.674988
101324.001676
101324.343770
101324.978002
101324.168601
101324.516177
101323.648780
101325.000000
101323.853484
101323.733335
101323.605131
101324.810225
101324.168601
101324.343770
101324.516177
101324.343770
101324.168601
101324.001676
101323.853484
101324.168601
101323.733335
101324.913391
101323.733335
101324.001676
101323.648780
101323.605131
101325.000000
101324.674988
101324.674988
101323.648780
101324.913391
101324.913391
101324.978002
101323.853484
101323.605131
101324.978002
101324.810225
101324.810225
101323.853484
101323.648780
101324.516177
101324.978002
101324.913391
101323.733335
101324.343770
101324.810225
101324.674988
101324.516177
101324.001676
101321.997470
101324.300395
101322.851055
101323.587431
101324.952648
101323.210370
101323.958545
101322.091426
101325.000000
101322.532062
101322.273436
101321.997470
101324.591499
101323.587431
101323.958545
101323.210370
101323.587431
101323.210370
101322.851055
101322.532062
101323.210370
101322.273436
101324.813568
101322.273436
101322.851055
101322.091426
101321.997470
101325.000000
101324.300395
101324.300395
101322.091426
101324.813568
101324.813568
101324.952648
101322.532062
101321.997470
101324.591499
101324.952648
101324.591499
101322.532062
101322.091426
101323.958545
101324.952648
101322.273436
101324.813568
101323.587431
101324.591499
101324.300395
101323.958545
101322.851055
101320.103621
101323.859118
101321.495605
101322.696451
101324.922781
101322.081559
101323.301647
101320.256841
101325.000000
101320.975408
101320.553653
101320.103621
101324.333837
101322.696451
101323.301647
101322.081559
101321.495605
101322.696451
101322.081559
101320.975408
101322.081559
101320.553653
101324.695977
101320.553653
101321.495605
101320.103621
101320.256841
101325.000000
101323.859118
101323.859118
101324.695977
101320.256841
101324.695977
101324.922781
101320.975408
101320.103621
101324.333837
101324.922781
101324.333837
101320.975408
101320.256841
101323.301647
101324.922781
101320.553653
101324.695977
101324.333837
101322.696451
101323.859118
101323.301647
101321.495605
101317.871330
101323.338982
101319.897929
101321.646249
101324.887577
101320.751023
101322.527356
101318.094404
101325.000000
101319.140570
101318.526535
101317.871330
101324.030130
101321.646249
101322.527356
101320.751023
101319.897929
101321.646249
101320.751023
101319.140570
101320.751023
101318.526535
101319.897929
101324.557370
101318.526535
101317.871330
101318.094404
101325.000000
101323.338982
101323.338982
101324.557370
101318.094404
101324.557370
101324.887577
101319.140570
101317.871330
101324.030129
101324.887577
101324.030129
101319.140570
101318.094404
101322.527356
101324.030129
101324.887577
101318.526535
101324.557370
101321.646249
101323.338982
101322.527356
101319.897929
101315.242576
101322.726469
101318.016500
101320.409526
101324.846120
101319.184179
101321.615549
101315.547910
101325.000000
101316.979859
101316.139392
101315.242576
101320.409526
101321.615549
101323.672482
101319.184179
101318.016500
101320.409526
101319.184179
101316.979859
101316.139392
101319.184179
101318.016500
101324.394147
101316.139392
101315.242576
101315.547910
101325.000000
101322.726469
101324.394147
101322.726469
101315.547910
101324.394147
101324.846120
101316.979859
101315.242576
101323.672482
101323.672482
101324.846120
101316.979859
101315.547910
101321.615549
101323.672482
101324.846120
101316.139392
101324.394147
101320.409526
101322.726469
101321.615549
101318.016500
101312.153284
101322.006647
101315.805458
101318.956139
101324.797400
101317.342835
101320.544000
101312.555289
101325.000000
101314.440607
101313.334041
101312.153284
101318.956139
101320.544000
101317.342835
101323.252177
101315.805458
101318.956139
101317.342835
101314.440607
101313.334041
101317.342835
101315.805458
101313.334041
101324.202329
101312.153284
101312.555289
101322.006647
101325.000000
101324.202329
101322.006647
101312.555289
101324.797400
101314.440607
101324.202329
101312.153284
101323.252177
101323.252177
101324.797400
101314.440607
101312.555289
101323.252177
101320.544000
101313.334041
101324.797400
101324.202329
101318.956139
101322.006647
101320.544000
101315.805458
101792.062623
101792.062623
101792.062623
101792.062623
101792.062623
101792.062623
101792.062623
101792.062623
101792.062623
101792.062623
101792.062623
101792.062623
101792.062623
101792.062623
101792.062623
101792.062623
101325.000000
101325.000000
101325.000000
101325.000000
101325.000000
101325.000000
101325.000000
101325.000000
101325.000000
101325.000000
101325.000000
101325.000000
101325.000000
101325.000000
101325.000000
101325.000000
101325.000000
101325.000000
101325.000000
101325.000000
101325.000000
101325.000000
101325.000000
101325.000000
101325.000000
101325.000000
101325.000000
101325.000000
101325.000000
101325.000000
101325.000000
101325.000000
101325.000000
101325.000000
101323.605131
101324.674988
101323.648780
101324.516177
101324.516177
101323.733335
101324.343770
101323.733335
101324.001676
101323.853484
101324.001676
101324.168601
101324.674988
101323.605131
101324.978002
101323.733335
101324.343770
101324.810225
101324.913391
101323.853484
101324.168601
101323.648780
101324.168601
101324.001676
101324.913391
101324.674988
101325.000000
101323.853484
101324.913391
101323.648780
101323.853484
101324.810225
101324.810225
101325.000000
101324.978002
101324.343770
101323.605131
101323.605131
101324.168601
101324.978002
101324.674988
101324.810225
101324.516177
101324.978002
101323.733335
101323.648780
101324.001676
101324.913391
101324.343770
101324.516177
101308.532648
101321.163020
101317.252776
101313.214128
101324.740300
101315.184789
101319.288150
101309.047953
101325.000000
101311.464616
101310.046183
101308.532648
101317.252776
101319.288150
101315.184789
101322.759582
101313.214128
101311.464616
101317.252776
101315.184789
101310.046183
101315.184789
101313.214128
101310.046183
101323.977518
101308.532648
101309.047953
101321.163020
101325.000000
101323.977518
101321.163020
101309.047953
101311.464616
101324.740300
101323.977518
101308.532648
101322.759582
101322.759582
101324.740300
101311.464616
101322.759582
101309.047953
101319.288150
101310.046183
101324.740300
101323.977518
101317.252776
101321.163020
101319.288150
101313.214128
101321.997470
101324.300395
101322.091426
101323.958545
101323.958545
101323.587431
101322.273436
101322.273436
101322.851055
101322.532062
101322.851055
101323.210370
101324.300395
101321.997470
101324.952648
101322.273436
101323.587431
101324.591499
101324.813568
101322.532062
101323.210370
101322.091426
101323.210370
101322.851055
101324.813568
101324.300395
101322.532062
101325.000000
101324.813568
101322.091426
101322.532062
101324.591499
101324.591499
101324.952648
101325.000000
101323.587431
101321.997470
101321.997470
101323.210370
101324.952648
101324.300395
101324.591499
101323.958545
101324.952648
101322.273436
101322.091426
101322.851055
101324.813568
101323.587431
101323.958545
101320.103621
101323.859118
101320.256841
101323.301647
101323.301647
101322.696451
101320.553653
101320.553653
101321.495605
101320.975408
101321.495605
101322.081559
101323.859118
101324.922781
101320.103621
101320.553653
101322.696451
101324.695977
101324.333837
101320.975408
101322.081559
101320.256841
101322.081559
101321.495605
101324.695977
101323.859118
101320.975408
101325.000000
101324.695977
101320.256841
101320.975408
101324.333837
101324.333837
101324.922781
101325.000000
101322.696451
101320.103621
101320.103621
101322.081559
101324.922781
101323.859118
101324.333837
101323.301647
101324.922781
101320.553653
101320.256841
101321.495605
101324.695977
101322.696451
101323.301647
101304.299246
101320.176615
101315.261132
101310.184233
101324.673537
101312.661509
101317.819756
101304.947024
101325.000000
101307.984960
101306.201878
101304.299246
101317.819756
101315.261132
101312.661509
101322.183619
101310.184233
101307.984960
101315.261131
101312.661509
101306.201877
101310.184233
101312.661509
101306.201877
101323.714660
101304.299246
101320.176615
101304.947024
101325.000000
101323.714660
101320.176615
101304.947024
101307.984960
101324.673537
101323.714660
101304.299246
101322.183619
101322.183619
101324.673537
101307.984960
101322.183619
101304.947024
101317.819756
101306.201877
101324.673537
101320.176615
101323.714660
101315.261131
101310.184233
101317.819756
101317.871330
101323.338982
101318.094404
101322.527356
101322.527356
101321.646249
101318.526535
101318.526535
101319.897929
101319.897929
101319.140570
101320.751023
101323.338982
101324.887577
101317.871330
101318.526535
101321.646249
101324.557370
101324.030129
101319.140570
101320.751023
101318.094404
101320.751023
101319.897929
101324.557370
101323.338982
101319.140570
101325.000000
101324.557370
101318.094404
101319.140570
101324.030129
101324.030129
101324.887577
101325.000000
101321.646249
101317.871330
101317.871330
101320.751023
101324.887577
101323.338982
101324.030129
101322.527356
101324.887577
101318.526535
101318.094404
101319.897929
101324.557370
101321.646249
101322.527356
101315.242576
101322.726469
101321.615549
101315.547910
101321.615549
101320.409526
101316.139392
101316.139392
101318.016500
101318.016500
101316.979859
101319.184179
101322.726469
101324.846120
101316.139392
101315.242576
101320.409526
101324.394147
101316.979859
101323.672482
101319.184179
101315.547910
101318.016500
101319.184179
101324.394147
101322.726469
101316.979859
101325.000000
101315.547910
101324.394147
101316.979859
101323.672482
101323.672482
101324.846120
101325.000000
101320.409526
101315.242576
101315.242576
101319.184178
101324.846120
101322.726469
101323.672482
101321.615549
101316.139392
101315.547910
101324.846120
101318.016500
101324.394147
101320.409526
101321.615549
101299.358408
101319.025374
101312.936667
101306.648019
101324.595617
101309.716569
101316.105982
101300.160797
101325.000000
101303.923825
101301.715158
101299.358408
101316.105982
101312.936667
101309.716569
101306.648019
101321.511408
101303.923825
101312.936667
101309.716569
101301.715158
101306.648019
101309.716569
101301.715158
101323.407876
101299.358408
101319.025374
101300.160797
101325.000000
101323.407876
101300.160797
101319.025374
101303.923825
101324.595617
101323.407876
101299.358408
101321.511408
101321.511408
101321.511408
101303.923825
101324.595617
101300.160797
101301.715158
101316.105982
101324.595617
101319.025374
101323.407876
101312.936667
101306.648019
101316.105982
101312.153284
101322.006647
101320.544000
101312.555289
101320.544000
101318.956139
101313.334041
101313.334041
101315.805458
101315.805458
101314.440607
101317.342835
101322.006647
101324.797400
101313.334041
101312.153284
101318.956139
101324.202329
101314.440607
101323.252177
101317.342835
101315.805458
101312.555289
101317.342835
101324.202329
101322.006647
101314.440607
101325.000000
101312.555289
101324.202329
101314.440607
101323.252177
101323.252177
101324.797400
101325.000000
101318.956139
101312.153284
101312.153284
101317.342835
101323.252177
101322.006647
101324.797400
101320.544000
101313.334041
101312.555289
101315.805458
101324.797400
101324.202329
101318.956139
101320.544000
101308.532648
101321.163020
101319.288150
101319.288150
101317.252776
101309.047953
101310.046183
101310.046183
101313.214128
101313.214128
101311.464616
101315.184789
101321.163020
101324.740300
101310.046183
101308.532648
101317.252776
101323.977518
101311.464616
101322.759582
101315.184789
101313.214128
101309.047953
101323.977518
101321.163020
101315.184789
101311.464616
101309.047953
101325.000000
101311.464616
101323.977518
101322.759582
101322.759582
101324.740300
101325.000000
101308.532648
101317.252776
101308.532648
101315.184789
101322.759582
101321.163020
101324.740300
101319.288150
101310.046183
101309.047953
101313.214128
101324.740300
101323.977518
101317.252776
101319.288150
101293.627115
101317.689953
101310.240325
101302.546067
101324.505231
101306.300486
101314.118031
101294.608851
101325.000000
101299.212974
101296.510635
101293.627115
101314.118031
101310.240325
101306.300486
101302.546067
101299.212974
101320.731653
101296.510635
101310.240325
101306.300486
101302.546067
101296.510635
101306.300486
101323.052012
101317.689953
101293.627115
101294.608850
101325.000000
101323.052012
101294.608850
101317.689953
101299.212974
101324.505231
101323.052012
101293.627115
101320.731653
101320.731653
101320.731653
101299.212973
101324.505231
101294.608850
101296.510635
101314.118031
101317.689953
101324.505231
101323.052012
101310.240325
101302.546067
101314.118031
101304.299246
101320.176615
101317.819756
101317.819756
101315.261132
101306.201878
101304.947024
101306.201878
101310.184233
101310.184233
101312.661509
101307.984960
101320.176615
101306.201878
101324.673537
101304.299246
101315.261132
101323.714660
101307.984960
101322.183619
101312.661509
101310.184233
101304.947024
101320.176615
101323.714660
101312.661509
101307.984960
101304.947024
101307.984960
101325.000000
101323.714660
101322.183619
101322.183619
101324.673537
101325.000000
101304.299246
101304.299246
101315.261131
101322.183619
101312.661509
101320.176615
101324.673537
101317.819756
101306.201877
101304.947024
101310.184233
101323.714660
101324.673537
101315.261131
101317.819756
101287.011176
101316.148404
101307.127793
101297.810964
101324.400894
101302.357117
101311.823233
101288.199940
101325.000000
101290.502775
101293.774984
101287.011175
101311.823233
101307.127793
101302.357117
101297.810963
101293.774984
101319.831541
101290.502775
101297.810963
101307.127793
101302.357117
101290.502775
101322.641218
101316.148404
101302.357117
101287.011175
101288.199940
101322.641218
101325.000000
101288.199940
101316.148404
101293.774984
101324.400894
101287.011175
101322.641218
101319.831541
101319.831541
101319.831541
101293.774984
101288.199940
101324.400894
101290.502775
101311.823232
101316.148404
101324.400894
101322.641218
101307.127793
101297.810963
101311.823232
101299.358408
101319.025374
101316.105982
101316.105982
101312.936667
101301.715158
101300.160797
101301.715158
101306.648019
101306.648019
101309.716569
101303.923825
101319.025374
101301.715158
101324.595617
101312.936667
101323.407876
101299.358408
101303.923825
101321.511408
101309.716569
101306.648019
101319.025374
101300.160797
101323.407876
101303.923825
101309.716569
101303.923825
101300.160797
101325.000000
101323.407876
101321.511408
101321.511408
101324.595617
101325.000000
101299.358408
101299.358408
101312.936667
101321.511408
101309.716569
101319.025374
101324.595617
101301.715158
101316.105982
101300.160797
101306.648019
101323.407876
101324.595617
101312.936667
101316.105982
101293.627115
101317.689953
101314.118031
101296.510635
101310.240325
101314.118031
101294.608851
101296.510635
101302.546067
101302.546067
101306.300486
101317.689953
101299.212974
101296.510635
101324.505231
101310.240325
101323.052012
101293.627115
101299.212974
101306.300486
101302.546067
101320.731653
101317.689953
101294.608850
101323.052012
101299.212974
101299.212974
101306.300486
101294.608850
101325.000000
101323.052012
101320.731653
101320.731653
101324.505231
101293.627115
101293.627115
101325.000000
101320.731653
101310.240325
101306.300486
101317.689953
101324.505231
101296.510635
101302.546067
101294.608850
101314.118031
101323.052012
101324.505231
101310.240325
101314.118031
101279.410217
101314.377341
101303.551849
101292.370871
101297.826637
101324.281022
101309.186771
101280.836834
101325.000000
101283.600430
101287.527356
101309.186771
101279.410217
101303.551849
101297.826637
101287.527356
101292.370870
101318.797415
101283.600430
101292.370870
101283.600430
101303.551849
101314.377341
101297.826637
101322.169264
101279.410217
101297.826637
101280.836834
101322.169264
101325.000000
101280.836834
101314.377341
101287.527356
101324.281022
101279.410217
101322.169264
101318.797415
101318.797415
101318.797415
101287.527356
101280.836834
101283.600430
101324.281022
101314.377341
101309.186771
101324.281022
101322.169264
101292.370870
101303.551849
101309.186771
101287.011175
101316.148404
101311.823233
101290.502775
101307.127793
101311.823233
101288.199940
101290.502775
101297.810963
101297.810963
101302.357117
101316.148404
101290.502775
101293.774984
101324.400894
101322.641218
101307.127793
101293.774984
101287.011175
101297.810963
101302.357117
101316.148404
101319.831541
101293.774984
101322.641218
101293.774984
101288.199940
101302.357117
101288.199940
101319.831541
101319.831541
101325.000000
101322.641218
101324.400894
101287.011175
101287.011175
101319.831541
101325.000000
101307.127793
101316.148404
101302.357117
101324.400894
101290.502775
101297.810963
101288.199940
101311.823232
101322.641218
101324.400894
101307.127793
101311.823232
101270.703894
101312.348722
101299.455876
101286.139656
101292.637315
101324.143718
101306.166905
101272.402954
101325.000000
101306.166905
101299.455876
101275.694316
101280.371171
101270.703894
101280.371171
101292.637314
101286.139656
101275.694316
101286.139656
101317.612901
101312.348722
101275.694316
101321.628675
101299.455876
101292.637314
101270.703894
101292.637314
101321.628675
101272.402954
101325.000000
101272.402954
101312.348722
101280.371171
101324.143718
101317.612901
101270.703894
101317.612901
101321.628675
101280.371171
101317.612901
101272.402954
101275.694316
101324.143718
101312.348722
101306.166904
101324.143718
101286.139656
101321.628675
101299.455876
101306.166904
101279.410217
101314.377341
101309.186771
101283.600430
101303.551849
101309.186771
101280.836834
101292.370870
101283.600430
101297.826637
101292.370870
101314.377341
101283.600430
101322.169264
101324.281022
101303.551849
101287.527356
101287.527356
101279.410217
101292.370870
101297.826637
101287.527356
101314.377341
101287.527356
101322.169264
101318.797415
101280.836834
101280.836834
101297.826637
101318.797415
101318.797415
101322.169264
101325.000000
101324.281022
101318.797415
101279.410217
101279.410217
101325.000000
101314.377341
101303.551849
101297.826637
101283.600430
101324.281022
101292.370870
101280.836834
101309.186771
101322.169264
101324.281022
101303.551849
101309.186771
101260.844553
101310.051443
101294.817454
101279.083212
101286.760747
101323.988230
101302.747103
101262.852136
101325.000000
101302.747103
101294.817454
101272.267259
101286.760747
101279.083212
101266.741159
101260.844553
101272.267259
101266.741159
101279.083212
101310.051443
101266.741159
101316.271517
101321.016494
101260.844553
101294.817454
101286.760746
101286.760746
101321.016494
101262.852136
101325.000000
101262.852136
101310.051443
101272.267259
101316.271517
101323.988230
101260.844553
101272.267259
101316.271517
101321.016494
101316.271517
101266.741159
101262.852136
101310.051443
101323.988230
101302.747103
101279.083212
101323.988230
101321.016494
101294.817454
101302.747103
101270.703894
101306.166905
101312.348722
101275.694316
101299.455876
101306.166905
101272.402954
101286.139656
101292.637315
101275.694316
101312.348722
101286.139656
101275.694316
101321.628675
101299.455876
101324.143718
101280.371171
101280.371171
101270.703894
101280.371171
101286.139656
101292.637314
101312.348722
101280.371171