# vtk DataFile Version 3.0
Time Step 12, Physical Time = 0.000120s, Residual = 8.87e-03
ASCII
DATASET UNSTRUCTURED_GRID
POINTS 5000 float
0.318712 0.385257 0.000000
-0.318712 0.385257 0.000000
-0.318712 -0.385257 0.000000
0.318712 -0.385257 0.000000
0.093691 0.491144 0.000000
-0.093691 0.491144 0.000000
-0.093691 -0.491144 0.000000
0.093691 -0.491144 0.000000
0.404508 0.293893 0.000000
-0.404508 0.293893 0.000000
-0.404508 -0.293893 0.000000
0.404508 -0.293893 0.000000
0.438153 0.240877 0.000000
-0.438153 0.240877 0.000000
-0.438153 -0.240877 0.000000
0.438153 -0.240877 0.000000
0.500000 0.000000 0.000000
-0.500000 -0.000000 0.000000
0.364484 0.342274 0.000000
-0.364484 0.342274 0.000000
-0.364484 -0.342274 0.000000
0.364484 -0.342274 0.000000
0.496057 0.062667 0.000000
-0.496057 0.062667 0.000000
-0.496057 -0.062667 0.000000
0.496057 -0.062667 0.000000
0.212890 0.452414 0.000000
-0.212890 0.452414 0.000000
-0.212890 -0.452414 0.000000
0.212890 -0.452414 0.000000
0.154508 0.475528 0.000000
-0.154508 0.475528 0.000000
-0.154508 -0.475528 0.000000
0.154508 -0.475528 0.000000
0.267913 0.422164 0.000000
-0.267913 0.422164 0.000000
-0.267913 -0.422164 0.000000
0.267913 -0.422164 0.000000
0.031395 0.499013 0.000000
-0.031395 0.499013 0.000000
-0.031395 -0.499013 0.000000
0.031395 -0.499013 0.000000
0.464888 0.184062 0.000000
-0.464888 0.184062 0.000000
-0.464888 -0.184062 0.000000
0.464888 -0.184062 0.000000
0.484292 0.124345 0.000000
-0.484292 0.124345 0.000000
-0.484292 -0.124345 0.000000
0.484292 -0.124345 0.000000
-0.031454 0.499951 0.000000
0.438977 0.241329 0.000000
-0.268417 0.422957 0.000000
0.365169 0.342917 0.000000
-0.496990 -0.062784 0.000000
0.319311 -0.385981 0.000000
0.405269 0.294445 0.000000
-0.093867 0.492067 0.000000
0.500940 -0.000000 0.000000
-0.213290 0.453264 0.000000
-0.154799 0.476422 0.000000
0.031454 0.499951 0.000000
0.465762 0.184408 0.000000
0.319311 0.385981 0.000000
0.365169 -0.342917 0.000000
0.405269 -0.294445 0.000000
-0.365169 0.342917 0.000000
-0.319311 0.385981 0.000000
0.268417 0.422957 0.000000
0.213290 0.453264 0.000000
-0.319311 -0.385981 0.000000
0.154799 -0.476422 0.000000
-0.485202 -0.124579 0.000000
0.154799 0.476422 0.000000
0.268417 -0.422957 0.000000
0.093867 0.492067 0.000000
-0.031454 -0.499951 0.000000
-0.500940 0.000000 0.000000
0.438977 -0.241329 0.000000
-0.438977 -0.241329 0.000000
0.093867 -0.492067 0.000000
-0.485202 0.124579 0.000000
0.485202 0.124579 0.000000
-0.496990 0.062784 0.000000
0.213290 -0.453264 0.000000
0.031454 -0.499951 0.000000
0.496990 -0.062784 0.000000
0.465762 -0.184408 0.000000
-0.465762 -0.184408 0.000000
-0.213290 -0.453264 0.000000
-0.093867 -0.492067 0.000000
-0.405269 -0.294445 0.000000
0.496990 0.062784 0.000000
0.485202 -0.124579 0.000000
-0.154799 -0.476422 0.000000
-0.365169 -0.342917 0.000000
-0.465762 0.184408 0.000000
-0.438977 0.241329 0.000000
-0.405269 0.294445 0.000000
-0.268417 -0.422957 0.000000
-0.031523 0.501039 0.000000
0.439932 0.241854 0.000000
-0.269001 0.423877 0.000000
0.365964 0.343663 0.000000
-0.498071 -0.062921 0.000000
0.320005 -0.386820 0.000000
0.406150 0.295085 0.000000
-0.094071 0.493137 0.000000
0.502029 -0.000000 0.000000
-0.213754 0.454250 0.000000
-0.155136 0.477458 0.000000
0.031523 0.501039 0.000000
0.466775 0.184809 0.000000
0.365964 -0.343663 0.000000
0.406150 -0.295085 0.000000
0.320005 0.386820 0.000000
-0.365964 0.343663 0.000000
-0.320005 0.386820 0.000000
0.269001 0.423877 0.000000
0.213754 0.454250 0.000000
-0.320005 -0.386820 0.000000
0.155136 -0.477458 0.000000
-0.486257 -0.124850 0.000000
0.155136 0.477458 0.000000
0.269001 -0.423877 0.000000
0.094071 0.493137 0.000000
-0.031523 -0.501039 0.000000
-0.502029 0.000000 0.000000
0.439932 -0.241854 0.000000
-0.439932 -0.241854 0.000000
0.094071 -0.493137 0.000000
-0.486257 0.124850 0.000000
0.486257 0.124850 0.000000
-0.498071 0.062921 0.000000
0.213754 -0.454250 0.000000
0.031523 -0.501039 0.000000
0.466775 -0.184809 0.000000
0.498071 -0.062921 0.000000
-0.466775 -0.184809 0.000000
-0.213754 -0.454250 0.000000
-0.094071 -0.493137 0.000000
-0.406150 -0.295085 0.000000
0.498071 0.062921 0.000000
-0.155136 -0.477458 0.000000
0.486257 -0.124850 0.000000
-0.365964 -0.343663 0.000000
-0.466775 0.184809 0.000000
-0.439932 0.241854 0.000000
-0.406150 0.295085 0.000000
-0.269001 -0.423877 0.000000
-0.031604 0.502329 0.000000
0.441064 0.242477 0.000000
-0.269693 0.424969 0.000000
0.366906 0.344547 0.000000
-0.499353 -0.063083 0.000000
0.320829 -0.387816 0.000000
0.407196 0.295845 0.000000
-0.094313 0.494407 0.000000
0.503322 -0.000000 0.000000
-0.214304 0.455419 0.000000
-0.155535 0.478688 0.000000
0.031604 0.502329 0.000000
0.467977 0.185285 0.000000
0.366906 -0.344547 0.000000
0.407196 -0.295845 0.000000
0.320829 0.387816 0.000000
0.269693 0.424969 0.000000
-0.366906 0.344547 0.000000
-0.320829 0.387816 0.000000
0.214304 0.455419 0.000000
-0.320829 -0.387816 0.000000
0.155535 -0.478688 0.000000
-0.487509 -0.125171 0.000000
0.155535 0.478688 0.000000
0.269693 -0.424969 0.000000
-0.031604 -0.502329 0.000000
0.094313 0.494407 0.000000
-0.503322 0.000000 0.000000
0.441064 -0.242477 0.000000
-0.441064 -0.242477 0.000000
-0.487509 0.125171 0.000000
0.094313 -0.494407 0.000000
0.487509 0.125171 0.000000
-0.499353 0.063083 0.000000
0.214304 -0.455419 0.000000
0.031604 -0.502329 0.000000
0.467977 -0.185285 0.000000
0.499353 -0.063083 0.000000
-0.467977 -0.185285 0.000000
-0.214304 -0.455419 0.000000
-0.094313 -0.494407 0.000000
-0.407196 -0.295845 0.000000
0.499353 0.063083 0.000000
-0.155535 -0.478688 0.000000
0.487509 -0.125171 0.000000
-0.467977 0.185285 0.000000
-0.366906 -0.344547 0.000000
-0.441064 0.242477 0.000000
-0.407196 0.295845 0.000000
-0.269693 -0.424969 0.000000
-0.031700 0.503862 0.000000
0.442411 0.243217 0.000000
-0.270517 0.426266 0.000000
0.368026 0.345599 0.000000
-0.500877 -0.063276 0.000000
0.321809 -0.389000 0.000000
0.408439 0.296748 0.000000
-0.094601 0.495916 0.000000
0.504858 -0.000000 0.000000
-0.214958 0.456810 0.000000
-0.156010 0.480149 0.000000
0.031700 0.503862 0.000000
0.469405 0.185851 0.000000
0.368026 -0.345599 0.000000
0.408439 -0.296748 0.000000
0.321809 0.389000 0.000000
0.270517 0.426266 0.000000
-0.368026 0.345599 0.000000
-0.321809 0.389000 0.000000
0.214958 0.456810 0.000000
-0.321809 -0.389000 0.000000
0.156010 -0.480149 0.000000
0.270517 -0.426266 0.000000
-0.488997 -0.125553 0.000000
0.156010 0.480149 0.000000
-0.031700 -0.503862 0.000000
0.094601 0.495916 0.000000
-0.504858 0.000000 0.000000
0.442411 -0.243217 0.000000
-0.442411 -0.243217 0.000000
-0.488997 0.125553 0.000000
0.094601 -0.495916 0.000000
0.488997 0.125553 0.000000
-0.500877 0.063276 0.000000
0.214958 -0.456810 0.000000
0.031700 -0.503862 0.000000
0.469405 -0.185851 0.000000
0.500877 -0.063276 0.000000
-0.469405 -0.185851 0.000000
-0.214958 -0.456810 0.000000
-0.094601 -0.495916 0.000000
-0.408439 -0.296748 0.000000
-0.469405 0.185851 0.000000
0.500877 0.063276 0.000000
-0.156010 -0.480149 0.000000
0.488997 -0.125553 0.000000
-0.368026 -0.345599 0.000000
-0.442411 0.243217 0.000000
-0.408439 0.296748 0.000000
-0.270517 -0.426266 0.000000
-0.031815 0.505686 0.000000
0.444012 0.244098 0.000000
-0.271496 0.427809 0.000000
0.369358 0.346850 0.000000
-0.502691 -0.063505 0.000000
0.322974 -0.390408 0.000000
0.409918 0.297823 0.000000
-0.094943 0.497711 0.000000
0.506686 -0.000000 0.000000
-0.215736 0.458463 0.000000
-0.156575 0.481887 0.000000
0.031815 0.505686 0.000000
0.369358 -0.346850 0.000000
0.409918 -0.297823 0.000000
0.471105 0.186524 0.000000
0.322974 0.390408 0.000000
0.271496 0.427809 0.000000
-0.369358 0.346850 0.000000
-0.322974 0.390408 0.000000
0.215736 0.458463 0.000000
0.156575 -0.481887 0.000000
-0.322974 -0.390408 0.000000
0.271496 -0.427809 0.000000
-0.490768 -0.126008 0.000000
0.156575 0.481887 0.000000
-0.031815 -0.505686 0.000000
0.094943 0.497711 0.000000
-0.506686 0.000000 0.000000
0.444012 -0.244098 0.000000
-0.490768 0.126008 0.000000
-0.444012 -0.244098 0.000000
0.094943 -0.497711 0.000000
0.490768 0.126008 0.000000
-0.502691 0.063505 0.000000
0.215736 -0.458463 0.000000
0.031815 -0.505686 0.000000
0.471105 -0.186524 0.000000
-0.471105 -0.186524 0.000000
0.502691 -0.063505 0.000000
-0.215736 -0.458463 0.000000
-0.094943 -0.497711 0.000000
-0.409918 -0.297823 0.000000
-0.471105 0.186524 0.000000
0.502691 0.063505 0.000000
-0.156575 -0.481887 0.000000
0.490768 -0.126008 0.000000
-0.369358 -0.346850 0.000000
-0.444012 0.244098 0.000000
-0.409918 0.297823 0.000000
-0.271496 -0.427809 0.000000
-0.031952 0.507855 0.000000
0.445917 0.245145 0.000000
-0.272661 0.429644 0.000000
0.370943 0.348338 0.000000
-0.504847 -0.063777 0.000000
0.324359 -0.392083 0.000000
0.411676 0.299100 0.000000
-0.095351 0.499846 0.000000
0.508859 -0.000000 0.000000
-0.216662 0.460430 0.000000
-0.157246 0.483954 0.000000
0.031952 0.507855 0.000000
0.370943 -0.348338 0.000000
0.411676 -0.299100 0.000000
0.324359 0.392083 0.000000
0.473126 0.187324 0.000000
0.272661 0.429644 0.000000
-0.370943 0.348338 0.000000
-0.324359 0.392083 0.000000
0.216662 0.460430 0.000000
0.157246 -0.483954 0.000000
-0.324359 -0.392083 0.000000
0.272661 -0.429644 0.000000
0.157246 0.483954 0.000000
-0.492873 -0.126548 0.000000
-0.031952 -0.507855 0.000000
0.095351 0.499846 0.000000
0.445917 -0.245145 0.000000
-0.508859 0.000000 0.000000
-0.492873 0.126548 0.000000
-0.445917 -0.245145 0.000000
0.095351 -0.499846 0.000000
-0.504847 0.063777 0.000000
0.216662 -0.460430 0.000000
0.492873 0.126548 0.000000
0.031952 -0.507855 0.000000
0.473126 -0.187324 0.000000
-0.473126 -0.187324 0.000000
0.504847 -0.063777 0.000000
-0.216662 -0.460430 0.000000
-0.095351 -0.499846 0.000000
-0.473126 0.187324 0.000000
-0.411676 -0.299100 0.000000
-0.157246 -0.483954 0.000000
0.504847 0.063777 0.000000
0.492873 -0.126548 0.000000
-0.370943 -0.348338 0.000000
-0.445917 0.245145 0.000000
-0.411676 0.299100 0.000000
-0.272661 -0.429644 0.000000
0.318712 0.385257 0.100000
-0.318712 0.385257 0.100000
[...]
POINT_DATA 5000
SCALARS pressure float 1
LOOKUP_TABLE default
101431.686069
101431.686069
101431.686069
101431.686069
101431.686069
101431.686069
101431.686069
101431.686069
101431.686069
101431.686069
101431.686069
101431.686069
101431.686069
101431.686069
101431.686069
101431.686069
101325.000000
101325.000000
101325.000000
101325.000000
101325.000000
101325.000000
101325.000000
101325.000000
101325.000000
101325.000000
101325.000000
101325.000000
101325.000000
101325.000000
101325.000000
101325.000000
101325.000000
101325.000000
101325.000000
101325.000000
101325.000000
101325.000000
101325.000000
101325.000000
101325.000000
101325.000000
101325.000000
101325.000000
101325.000000
101325.000000
101325.000000
101325.000000
101325.000000
101325.000000
101324.681385
101324.925761
101324.771964
101324.850105
101324.994975
101324.810093
101324.889486
101324.691355
101325.000000
101324.738114
101324.710669
101324.681385
101324.956652
101324.810093
101324.850105
101324.889486
101324.850105
101324.810093
101324.771964
101324.738114
101324.810093
101324.710669
101324.980217
101324.710669
101324.771964
101324.691355
101324.681385
101325.000000
101324.925761
101324.925761
101324.691355
101324.980217
101324.980217
101324.994975
101324.738114
101324.681385
101324.994975
101324.956652
101324.956652
101324.738114
101324.691355
101324.889486
101324.994975
101324.980217
101324.710669
101324.850105
101324.956652
101324.925761
101324.889486
101324.771964
101324.314164
101324.840197
101324.509140
101324.677342
101324.989184
101324.591214
101324.762112
101324.335626
101325.000000
101324.436276
101324.377200
101324.314164
101324.906691
101324.677342
101324.762112
101324.591214
101324.677342
101324.591214
101324.509140
101324.436276
101324.591214
101324.377200
101324.957415
101324.377200
101324.509140
101324.335626
101324.314164
101325.000000
101324.840197
101324.840197
101324.335626
101324.957415
101324.957415
101324.989184
101324.436276
101324.314164
101324.906691
101324.989184
101324.906691
101324.436276
101324.335626
101324.762112
101324.989184
101324.377200
101324.957415
101324.677342
101324.906691
101324.840197
101324.762112
101324.509140
101323.881573
101324.739401
101324.199529
101324.473825
101324.982362
101324.333372
101324.612063
101323.916571
101325.000000
101324.080706
101323.984369
101323.881573
101324.847836
101324.473825
101324.612063
101324.333372
101324.199529
101324.473825
101324.333372
101324.080706
101324.333372
101323.984369
101324.930555
101323.984369
101324.199529
101323.881573
101323.916571
101325.000000
101324.739401
101324.739401
101324.930555
101323.916571
101324.930555
101324.982362
101324.080706
101323.881573
101324.847836
101324.982362
101324.847836
101324.080706
101323.916571
101324.612063
101324.982362
101323.984369
101324.930555
101324.847836
101324.473825
101324.739401
101324.612063
101324.199529
101323.371675
101324.620592
101323.834589
101324.233939
101324.974320
101324.029452
101324.435201
101323.422629
101325.000000
101323.661594
101323.521336
101323.371675
101324.778463
101324.233939
101324.435201
101324.029452
101323.834589
101324.233939
101324.029452
101323.661594
101324.029452
101323.521336
101323.834589
101324.898895
101323.521336
101323.371675
101323.422629
101325.000000
101324.620592
101324.620592
101324.898895
101323.422629
101324.898895
101324.974320
101323.661594
101323.371675
101324.778463
101324.974320
101324.778463
101323.661594
101323.422629
101324.435201
101324.778463
101324.974320
101323.521336
101324.898895
101324.233939
101324.620592
101324.435201
101323.834589
101322.771217
101324.480682
101323.404834
101323.951448
101324.964851
101323.671555
101324.226926
101322.840961
101325.000000
101323.168046
101322.976067
101322.771217
101323.951448
101324.226926
101324.696769
101323.671555
101323.404834
101323.951448
101323.671555
101323.168046
101322.976067
101323.671555
101323.404834
101324.861612
101322.976067
101322.771217
101322.840961
101325.000000
101324.480682
101324.861612
101324.480682
101322.840961
101324.861612
101324.964851
101323.168046
101322.771217
101324.696769
101324.696769
101324.964851
101323.168046
101322.840961
101324.226926
101324.696769
101324.964851
101322.976067
101324.861612
101323.951448
101324.480682
101324.226926
101323.404834
101322.065563
101324.316261
101322.899790
101323.619466
101324.953722
101323.250957
101323.982164
101322.157389
101325.000000
101322.588032
101322.335271
101322.065563
101323.619466
101323.982164
101323.250957
101324.600764
101322.899790
101323.619466
101323.250957
101322.588032
101322.335271
101323.250957
101322.899790
101322.335271
101324.817797
101322.065563
101322.157389
101324.316261
101325.000000
101324.817797
101324.316261
101322.157389
101324.953722
101322.588032
101324.817797
101322.065563
101324.600764
101324.600764
101324.953722
101322.588032
101322.157389
101324.600764
101323.982164
101322.335271
101324.953722
101324.817797
101323.619466
101324.316261
101323.982164
101322.899790
101431.686069
101431.686069
101431.686069
101431.686069
101431.686069
101431.686069
101431.686069
101431.686069
101431.686069
101431.686069
101431.686069
101431.686069
101431.686069
101431.686069
101431.686069
101431.686069
101325.000000
101325.000000
101325.000000
101325.000000
101325.000000
101325.000000
101325.000000
101325.000000
101325.000000
101325.000000
101325.000000
101325.000000
101325.000000
101325.000000
101325.000000
101325.000000
101325.000000
101325.000000
101325.000000
101325.000000
101325.000000
101325.000000
101325.000000
101325.000000
101325.000000
101325.000000
101325.000000
101325.000000
101325.000000
101325.000000
101325.000000
101325.000000
101325.000000
101325.000000
101324.681385
101324.925761
101324.691355
101324.889486
101324.889486
101324.710669
101324.850105
101324.710669
101324.771964
101324.738114
101324.771964
101324.810093
101324.925761
101324.681385
101324.994975
101324.710669
101324.850105
101324.956652
101324.980217
101324.738114
101324.810093
101324.691355
101324.810093
101324.771964
101324.980217
101324.925761
101325.000000
101324.738114
101324.980217
101324.691355
101324.738114
101324.956652
101324.956652
101325.000000
101324.994975
101324.850105
101324.681385
101324.681385
101324.810093
101324.994975
101324.925761
101324.956652
101324.889486
101324.994975
101324.710669
101324.691355
101324.771964
101324.980217
101324.850105
101324.889486
101321.238541
101324.123560
101323.230385
101322.307881
101324.940680
101322.758017
101323.695304
101321.356246
101325.000000
101321.908259
101321.584261
101321.238541
101323.230385
101323.695304
101322.758017
101324.488246
101322.307881
101321.908259
101323.230385
101322.758017
101321.584261
101322.758017
101322.307881
101321.584261
101324.766445
101321.238541
101321.356246
101324.123560
101325.000000
101324.766445
101324.123560
101321.356246
101321.908259
101324.940680
101324.766445
101321.238541
101324.488246
101324.488246
101324.940680
101321.908259
101324.488246
101321.356246
101323.695304
101321.584261
101324.940680
101324.766445
101323.230385
101324.123560
101323.695304
101322.307881
101324.314164
101324.840197
101324.335626
101324.762112
101324.762112
101324.677342
101324.377200
101324.377200
101324.509140
101324.436276
101324.509140
101324.591214
101324.840197
101324.314164
101324.989184
101324.377200
101324.677342
101324.906691
101324.957415
101324.436276
101324.591214
101324.335626
101324.591214
101324.509140
101324.957415
101324.840197
101324.436276
101325.000000
101324.957415
101324.335626
101324.436276
101324.906691
101324.906691
101324.989184
101325.000000
101324.677342
101324.314164
101324.314164
101324.591214
101324.989184
101324.840197
101324.906691
101324.762112
101324.989184
101324.377200
101324.335626
101324.509140
101324.957415
101324.677342
101324.762112
101323.881573
101324.739401
101323.916571
101324.612063
101324.612063
101324.473825
101323.984369
101323.984369
101324.199529
101324.080706
101324.199529
101324.333372
101324.739401
101324.982362
101323.881573
101323.984369
101324.473825
101324.930555
101324.847836
101324.080706
101324.333372
101323.916571
101324.333372
101324.199529
101324.930555
101324.739401
101324.080706
101325.000000
101324.930555
101323.916571
101324.080706
101324.847836
101324.847836
101324.982362
101325.000000
101324.473825
101323.881573
101323.881573
101324.333372
101324.982362
101324.739401
101324.847836
101324.612063
101324.982362
101323.984369
101323.916571
101324.199529
101324.930555
101324.473825
101324.612063
101320.271550
101323.898246
101322.775455
101321.615794
101324.925430
101322.181652
101323.359894
101320.419515
101325.000000
101321.113438
101320.706148
101320.271550
101323.359894
101322.775455
101322.181652
101324.356685
101321.615794
101321.113438
101322.775455
101322.181652
101320.706148
101321.615794
101322.181652
101320.706148
101324.706404
101320.271550
101323.898246
101320.419515
101325.000000
101324.706404
101323.898246
101320.419515
101321.113438
101324.925430
101324.706404
101320.271550
101324.356685
101324.356685
101324.925430
101321.113438
101324.356685
101320.419515
101323.359894
101320.706148
101324.925430
101323.898246
101324.706404
101322.775455
101321.615794
101323.359894
101323.371675
101324.620592
101323.422629
101324.435201
101324.435201
101324.233939
101323.521336
101323.521336
101323.834589
101323.834589
101323.661594
101324.029452
101324.620592
101324.974320
101323.371675
101323.521336
101324.233939
101324.898895
101324.778463
101323.661594
101324.029452
101323.422629
101324.029452
101323.834589
101324.898895
101324.620592
101323.661594
101325.000000
101324.898895
101323.422629
101323.661594
101324.778463
101324.778463
101324.974320
101325.000000
101324.233939
101323.371675
101323.371675
101324.029452
101324.974320
101324.620592
101324.778463
101324.435201
101324.974320
101323.521336
101323.422629
101323.834589
101324.898895
101324.233939
101324.435201
101322.771217
101324.480682
101324.226926
101322.840961
101324.226926
101323.951448
101322.976067
101322.976067
101323.404834
101323.404834
101323.168046
101323.671555
101324.480682
101324.964851
101322.976067
101322.771217
101323.951448
101324.861612
101323.168046
101324.696769
101323.671555
101322.840961
101323.404834
101323.671555
101324.861612
101324.480682
101323.168046
101325.000000
101322.840961
101324.861612
101323.168046
101324.696769
101324.696769
101324.964851
101325.000000
101323.951448
101322.771217
101322.771217
101323.671555
101324.964851
101324.480682
101324.696769
101324.226926
101322.976067
101322.840961
101324.964851
101323.404834
101324.861612
101323.951448
101324.226926
101319.142968
101323.635281
101322.244503
101320.808055
101324.907631
101321.508971
101322.968436
101319.326249
101325.000000
101320.185797
101319.681295
101319.142968
101322.968435
101322.244503
101321.508971
101320.808055
101324.203139
101320.185797
101322.244503
101321.508971
101319.681295
101320.808055
101321.508971
101319.681295
101324.636328
101319.142968
101323.635281
101319.326249
101325.000000
101324.636328
101319.326249
101323.635281
101320.185797
101324.907631
101324.636328
101319.142968
101324.203139
101324.203139
101324.203139
101320.185797
101324.907631
101319.326249
101319.681295
101322.968435
101324.907631
101323.635281
101324.636328
101322.244503
101320.808055
101322.968435
101322.065563
101324.316261
101323.982164
101322.157389
101323.982164
101323.619466
101322.335271
101322.335271
101322.899790
101322.899790
101322.588032
101323.250957
101324.316261
101324.953722
101322.335271
101322.065563
101323.619466
101324.817797
101322.588032
101324.600764
101323.250957
101322.899790
101322.157389
101323.250957
101324.817797
101324.316261
101322.588032
101325.000000
101322.157389
101324.817797
101322.588032
101324.600764
101324.600764
101324.953722
101325.000000
101323.619466
101322.065563
101322.065563
101323.250957
101324.600764
101324.316261
101324.953722
101323.982164
101322.335271
101322.157389
101322.899790
101324.953722
101324.817797
101323.619466
101323.982164
101321.238541
101324.123560
101323.695304
101323.695304
101323.230385
101321.356246
101321.584261
101321.584261
101322.307881
101322.307881
101321.908259
101322.758017
101324.123560
101324.940680
101321.584261
101321.238541
101323.230385
101324.766445
101321.908259
101324.488246
101322.758017
101322.307881
101321.356246
101324.766445
101324.123560
101322.758017
101321.908259
101321.356246
101325.000000
101321.908259
101324.766445
101324.488246
101324.488246
101324.940680
101325.000000
101321.238541
101323.230385
101321.238541
101322.758017
101324.488246
101324.123560
101324.940680
101323.695304
101321.584261
101321.356246
101322.307881
101324.940680
101324.766445
101323.230385
101323.695304
101317.833831
101323.330245
101321.628607
101319.871091
101324.886985
101320.728672
101322.514349
101318.058078
101325.000000
101319.109748
101318.492482
101317.833831
101322.514349
101321.628607
101320.728672
101319.871091
101319.109748
101324.025028
101318.492482
101321.628607
101320.728672
101319.871091
101318.492482
101320.728672
101324.555042
101323.330245
101317.833831
101318.058078
101325.000000
101324.555042
101318.058078
101323.330245
101319.109748
101324.886985
101324.555042
101317.833831
101324.025028
101324.025028
101324.025028
101319.109748
101324.886985
101318.058078
101318.492482
101322.514349
101323.330245
101324.886985
101324.555042
101321.628607
101319.871091
101322.514349
101320.271550
101323.898246
101323.359894
101323.359894
101322.775455
101320.706148
101320.419515
101320.706148
101321.615794
101321.615794
101322.181652
101321.113438
101323.898246
101320.706148
101324.925430
101320.271550
101322.775455
101324.706404
101321.113438
101324.356685
101322.181652
101321.615794
101320.419515
101323.898246
101324.706404
101322.181652
101321.113438
101320.419515
101321.113438
101325.000000
101324.706404
101324.356685
101324.356685
101324.925430
101325.000000
101320.271550
101320.271550
101322.775455
101324.356685
101322.181652
101323.898246
101324.925430
101323.359894
101320.706148
101320.419515
101321.615794
101324.706404
101324.925430
101322.775455
101323.359894
101316.322623
101322.978126
101320.917645
101318.789502
101324.863153
101319.827931
101321.990173
101316.594160
101325.000000
101317.120172
101317.867607
101316.322623
101321.990173
101320.917645
101319.827931
101318.789502
101317.867607
101323.819425
101317.120172
101318.789502
101320.917645
101319.827931
101317.120172
101324.461209
101322.978126
101319.827931
101316.322623
101316.594160
101324.461209
101325.000000
101316.594160
101322.978126
101317.867607
101324.863153
101316.322623
101324.461209
101323.819425
101323.819425
101323.819425
101317.867607
101316.594160
101324.863153
101317.120172
101321.990173
101322.978126
101324.863153
101324.461209
101320.917645
101318.789502
101321.990173
101319.142968
101323.635281
101322.968436
101322.968435
101322.244503
101319.681295
101319.326249
101319.681295
101320.808055
101320.808055
101321.508971
101320.185797
101323.635281
101319.681295
101324.907631
101322.244503
101324.636328
101319.142968
101320.185797
101324.203139
101321.508971
101320.808055
101323.635281
101319.326249
101324.636328
101320.185797
101321.508971
101320.185797
101319.326249
101325.000000
101324.636328
101324.203139
101324.203139
101324.907631
101325.000000
101319.142968
101319.142968
101322.244503
101324.203139
101321.508971
101323.635281
101324.907631
101319.681295
101322.968435
101319.326249
101320.808055
101324.636328
101324.907631
101322.244503
101322.968435
101317.833831
101323.330245
101322.514349
101318.492482
101321.628607
101322.514349
101318.058078
101318.492482
101319.871091
101319.871091
101320.728672
101323.330245
101319.109748
101318.492482
101324.886985
101321.628607
101324.555042
101317.833831
101319.109748
101320.728672
101319.871091
101324.025028
101323.330245
101318.058078
101324.555042
101319.109748
101319.109748
101320.728672
101318.058078
101325.000000
101324.555042
101324.025028
101324.025028
101324.886985
101317.833831
101317.833831
101325.000000
101324.025028
101321.628607
101320.728672
101323.330245
101324.886985
101318.492482
101319.871091
101318.058078
101322.514349
101324.555042
101324.886985
101321.628607
101322.514349
101314.586418
101322.573581
101320.100831
101317.546880
101318.793082
101324.835772
101321.387955
101314.912285
101325.000000
101315.543543
101316.440529
101321.387955
101314.586418
101320.100831
101318.793082
101316.440529
101317.546880
101323.583210
101315.543543
101317.546880
101315.543543
101320.100831
101322.573581
101318.793082
101324.353405
101314.586418
101318.793082
101314.912285
101324.353405
101325.000000
101314.912285
101322.573581
101316.440529
101324.835772
101314.586418
101324.353405
101323.583210
101323.583210
101323.583210
101316.440529
101314.912285
101315.543543
101324.835772
101322.573581
101321.387955
101324.835772
101324.353405
101317.546880
101320.100831
101321.387955
101316.322623
101322.978126
101321.990173
101317.120172
101320.917645
101321.990173
101316.594160
101317.120172
101318.789502
101318.789502
101319.827931
101322.978126
101317.120172
101317.867607
101324.863153
101324.461209
101320.917645
101317.867607
101316.322623
101318.789502
101319.827931
101322.978126
101323.819425
101317.867607
101324.461209
101317.867607
101316.594160
101319.827931
101316.594160
101323.819425
101323.819425
101325.000000
101324.461209
101324.863153
101316.322623
101316.322623
101323.819425
101325.000000
101320.917645
101322.978126
101319.827931
101324.863153
101317.120172
101318.789502
101316.594160
101321.990173
101324.461209
101324.863153
101320.917645
101321.990173
101312.597727
101322.110205
101319.165232
101316.123551
101317.607741
101324.804409
101320.698159
101312.985825
101325.000000
101320.698159
101319.165232
101313.737635
101314.805919
101312.597727
101314.805919
101317.607741
101316.123551
101313.737635
101316.123551
101323.312645
101322.110205
101313.737635
101324.229925
101319.165232
101317.607741
101312.597727
101317.607741
101324.229925
101312.985825
101325.000000
101312.985825
101322.110205
101314.805919
101324.804409
101323.312645
101312.597727
101323.312645
101324.229925
101314.805919
101323.312645
101312.985825
101313.737635
101324.804409
101322.110205
101320.698159
101324.804409
101316.123551
101324.229925
101319.165232
101320.698159
101314.586418
101322.573581
101321.387955
101315.543543
101320.100831
101321.387955
101314.912285
101317.546880
101315.543543
101318.793082
101317.546880
101322.573581
101315.543543
101324.353405
101324.835772
101320.100831
101316.440529
101316.440529
101314.586418
101317.546880
101318.793082
101316.440529
101322.573581
101316.440529
101324.353405
101323.583210
101314.912285
101314.912285
101318.793082
101323.583210
101323.583210
101324.353405
101325.000000
101324.835772
101323.583210
101314.586418
101314.586418
101325.000000
101322.573581
101320.100831
101318.793082
101315.543543
101324.835772
101317.546880
101314.912285
101321.387955
101324.353405
101324.835772
101320.100831
101321.387955
101310.345664
101321.585463
101318.105727
101314.511724
101316.265420
101324.768892
101319.917011
101310.804235
101325.000000
101319.917011
101318.105727
101312.954830
101316.265420
101314.511724
101311.692562
101310.345664
101312.954830
101311.692562
101314.511724
101321.585463
101311.692562
101323.006247
101324.090091
101310.345664
101318.105727
101316.265420
101316.265420
101324.090091
101310.804235
101325.000000
101310.804235
101321.585463
101312.954830
101323.006247
101324.768892
101310.345664
101312.954830
101323.006247
101324.090091
101323.006247
101311.692562
101310.804235
101321.585463
101324.768892
101319.917011
101314.511724
101324.768892
101324.090091
101318.105727
101319.917011
101312.597727
101320.698159
101322.110205
101313.737635
101319.165232
101320.698159
101312.985825
101316.123551
101317.607741
101313.737635
101322.110205
101316.123551
101313.737635
101324.229925
101319.165232
101324.804409
101314.805919
101314.805919
101312.597727
101314.805919
101316.123551
101317.607741
101322.110205
101314.805919