# vtk DataFile Version 3.0
Time Step 112, Physical Time = 0.001120s, Residual = 3.26e-03
ASCII
DATASET UNSTRUCTURED_GRID
POINTS 5000 float
0.318712 0.385257 0.000000
-0.318712 0.385257 0.000000
-0.318712 -0.385257 0.000000
0.318712 -0.385257 0.000000
0.093691 0.491144 0.000000
-0.093691 0.491144 0.000000
-0.093691 -0.491144 0.000000
0.093691 -0.491144 0.000000
0.404508 0.293893 0.000000
-0.404508 0.293893 0.000000
-0.404508 -0.293893 0.000000
0.404508 -0.293893 0.000000
0.438153 0.240877 0.000000
-0.438153 0.240877 0.000000
-0.438153 -0.240877 0.000000
0.438153 -0.240877 0.000000
0.500000 0.000000 0.000000
-0.500000 -0.000000 0.000000
0.364484 0.342274 0.000000
-0.364484 0.342274 0.000000
-0.364484 -0.342274 0.000000
0.364484 -0.342274 0.000000
0.496057 0.062667 0.000000
-0.496057 0.062667 0.000000
-0.496057 -0.062667 0.000000
0.496057 -0.062667 0.000000
0.212890 0.452414 0.000000
-0.212890 0.452414 0.000000
-0.212890 -0.452414 0.000000
0.212890 -0.452414 0.000000
0.154508 0.475528 0.000000
-0.154508 0.475528 0.000000
-0.154508 -0.475528 0.000000
0.154508 -0.475528 0.000000
0.267913 0.422164 0.000000
-0.267913 0.422164 0.000000
-0.267913 -0.422164 0.000000
0.267913 -0.422164 0.000000
0.031395 0.499013 0.000000
-0.031395 0.499013 0.000000
-0.031395 -0.499013 0.000000
0.031395 -0.499013 0.000000
0.464888 0.184062 0.000000
-0.464888 0.184062 0.000000
-0.464888 -0.184062 0.000000
0.464888 -0.184062 0.000000
0.484292 0.124345 0.000000
-0.484292 0.124345 0.000000
-0.484292 -0.124345 0.000000
0.484292 -0.124345 0.000000
-0.031454 0.499951 0.000000
0.438977 0.241329 0.000000
-0.268417 0.422957 0.000000
0.365169 0.342917 0.000000
-0.496990 -0.062784 0.000000
0.319311 -0.385981 0.000000
0.405269 0.294445 0.000000
-0.093867 0.492067 0.000000
0.500940 -0.000000 0.000000
-0.213290 0.453264 0.000000
-0.154799 0.476422 0.000000
0.031454 0.499951 0.000000
0.465762 0.184408 0.000000
0.319311 0.385981 0.000000
0.365169 -0.342917 0.000000
0.405269 -0.294445 0.000000
-0.365169 0.342917 0.000000
-0.319311 0.385981 0.000000
0.268417 0.422957 0.000000
0.213290 0.453264 0.000000
-0.319311 -0.385981 0.000000
0.154799 -0.476422 0.000000
-0.485202 -0.124579 0.000000
0.154799 0.476422 0.000000
0.268417 -0.422957 0.000000
0.093867 0.492067 0.000000
-0.031454 -0.499951 0.000000
-0.500940 0.000000 0.000000
0.438977 -0.241329 0.000000
-0.438977 -0.241329 0.000000
0.093867 -0.492067 0.000000
-0.485202 0.124579 0.000000
0.485202 0.124579 0.000000
-0.496990 0.062784 0.000000
0.213290 -0.453264 0.000000
0.031454 -0.499951 0.000000
0.496990 -0.062784 0.000000
0.465762 -0.184408 0.000000
-0.465762 -0.184408 0.000000
-0.213290 -0.453264 0.000000
-0.093867 -0.492067 0.000000
-0.405269 -0.294445 0.000000
0.496990 0.062784 0.000000
0.485202 -0.124579 0.000000
-0.154799 -0.476422 0.000000
-0.365169 -0.342917 0.000000
-0.465762 0.184408 0.000000
-0.438977 0.241329 0.000000
-0.405269 0.294445 0.000000
-0.268417 -0.422957 0.000000
-0.031523 0.501039 0.000000
0.439932 0.241854 0.000000
-0.269001 0.423877 0.000000
0.365964 0.343663 0.000000
-0.498071 -0.062921 0.000000
0.320005 -0.386820 0.000000
0.406150 0.295085 0.000000
-0.094071 0.493137 0.000000
0.502029 -0.000000 0.000000
-0.213754 0.454250 0.000000
-0.155136 0.477458 0.000000
0.031523 0.501039 0.000000
0.466775 0.184809 0.000000
0.365964 -0.343663 0.000000
0.406150 -0.295085 0.000000
0.320005 0.386820 0.000000
-0.365964 0.343663 0.000000
-0.320005 0.386820 0.000000
0.269001 0.423877 0.000000
0.213754 0.454250 0.000000
-0.320005 -0.386820 0.000000
0.155136 -0.477458 0.000000
-0.486257 -0.124850 0.000000
0.155136 0.477458 0.000000
0.269001 -0.423877 0.000000
0.094071 0.493137 0.000000
-0.031523 -0.501039 0.000000
-0.502029 0.000000 0.000000
0.439932 -0.241854 0.000000
-0.439932 -0.241854 0.000000
0.094071 -0.493137 0.000000
-0.486257 0.124850 0.000000
0.486257 0.124850 0.000000
-0.498071 0.062921 0.000000
0.213754 -0.454250 0.000000
0.031523 -0.501039 0.000000
0.466775 -0.184809 0.000000
0.498071 -0.062921 0.000000
-0.466775 -0.184809 0.000000
-0.213754 -0.454250 0.000000
-0.094071 -0.493137 0.000000
-0.406150 -0.295085 0.000000
0.498071 0.062921 0.000000
-0.155136 -0.477458 0.000000
0.486257 -0.124850 0.000000
-0.365964 -0.343663 0.000000
-0.466775 0.184809 0.000000
-0.439932 0.241854 0.000000
-0.406150 0.295085 0.000000
-0.269001 -0.423877 0.000000
-0.031604 0.502329 0.000000
0.441064 0.242477 0.000000
-0.269693 0.424969 0.000000
0.366906 0.344547 0.000000
-0.499353 -0.063083 0.000000
0.320829 -0.387816 0.000000
0.407196 0.295845 0.000000
-0.094313 0.494407 0.000000
0.503322 -0.000000 0.000000
-0.214304 0.455419 0.000000
-0.155535 0.478688 0.000000
0.031604 0.502329 0.000000
0.467977 0.185285 0.000000
0.366906 -0.344547 0.000000
0.407196 -0.295845 0.000000
0.320829 0.387816 0.000000
0.269693 0.424969 0.000000
-0.366906 0.344547 0.000000
-0.320829 0.387816 0.000000
0.214304 0.455419 0.000000
-0.320829 -0.387816 0.000000
0.155535 -0.478688 0.000000
-0.487509 -0.125171 0.000000
0.155535 0.478688 0.000000
0.269693 -0.424969 0.000000
-0.031604 -0.502329 0.000000
0.094313 0.494407 0.000000
-0.503322 0.000000 0.000000
0.441064 -0.242477 0.000000
-0.441064 -0.242477 0.000000
-0.487509 0.125171 0.000000
0.094313 -0.494407 0.000000
0.487509 0.125171 0.000000
-0.499353 0.063083 0.000000
0.214304 -0.455419 0.000000
0.031604 -0.502329 0.000000
0.467977 -0.185285 0.000000
0.499353 -0.063083 0.000000
-0.467977 -0.185285 0.000000
-0.214304 -0.455419 0.000000
-0.094313 -0.494407 0.000000
-0.407196 -0.295845 0.000000
0.499353 0.063083 0.000000
-0.155535 -0.478688 0.000000
0.487509 -0.125171 0.000000
-0.467977 0.185285 0.000000
-0.366906 -0.344547 0.000000
-0.441064 0.242477 0.000000
-0.407196 0.295845 0.000000
-0.269693 -0.424969 0.000000
-0.031700 0.503862 0.000000
0.442411 0.243217 0.000000
-0.270517 0.426266 0.000000
0.368026 0.345599 0.000000
-0.500877 -0.063276 0.000000
0.321809 -0.389000 0.000000
0.408439 0.296748 0.000000
-0.094601 0.495916 0.000000
0.504858 -0.000000 0.000000
-0.214958 0.456810 0.000000
-0.156010 0.480149 0.000000
0.031700 0.503862 0.000000
0.469405 0.185851 0.000000
0.368026 -0.345599 0.000000
0.408439 -0.296748 0.000000
0.321809 0.389000 0.000000
0.270517 0.426266 0.000000
-0.368026 0.345599 0.000000
-0.321809 0.389000 0.000000
0.214958 0.456810 0.000000
-0.321809 -0.389000 0.000000
0.156010 -0.480149 0.000000
0.270517 -0.426266 0.000000
-0.488997 -0.125553 0.000000
0.156010 0.480149 0.000000
-0.031700 -0.503862 0.000000
0.094601 0.495916 0.000000
-0.504858 0.000000 0.000000
0.442411 -0.243217 0.000000
-0.442411 -0.243217 0.000000
-0.488997 0.125553 0.000000
0.094601 -0.495916 0.000000
0.488997 0.125553 0.000000
-0.500877 0.063276 0.000000
0.214958 -0.456810 0.000000
0.031700 -0.503862 0.000000
0.469405 -0.185851 0.000000
0.500877 -0.063276 0.000000
-0.469405 -0.185851 0.000000
-0.214958 -0.456810 0.000000
-0.094601 -0.495916 0.000000
-0.408439 -0.296748 0.000000
-0.469405 0.185851 0.000000
0.500877 0.063276 0.000000
-0.156010 -0.480149 0.000000
0.488997 -0.125553 0.000000
-0.368026 -0.345599 0.000000
-0.442411 0.243217 0.000000
-0.408439 0.296748 0.000000
-0.270517 -0.426266 0.000000
-0.031815 0.505686 0.000000
0.444012 0.244098 0.000000
-0.271496 0.427809 0.000000
0.369358 0.346850 0.000000
-0.502691 -0.063505 0.000000
0.322974 -0.390408 0.000000
0.409918 0.297823 0.000000
-0.094943 0.497711 0.000000
0.506686 -0.000000 0.000000
-0.215736 0.458463 0.000000
-0.156575 0.481887 0.000000
0.031815 0.505686 0.000000
0.369358 -0.346850 0.000000
0.409918 -0.297823 0.000000
0.471105 0.186524 0.000000
0.322974 0.390408 0.000000
0.271496 0.427809 0.000000
-0.369358 0.346850 0.000000
-0.322974 0.390408 0.000000
0.215736 0.458463 0.000000
0.156575 -0.481887 0.000000
-0.322974 -0.390408 0.000000
0.271496 -0.427809 0.000000
-0.490768 -0.126008 0.000000
0.156575 0.481887 0.000000
-0.031815 -0.505686 0.000000
0.094943 0.497711 0.000000
-0.506686 0.000000 0.000000
0.444012 -0.244098 0.000000
-0.490768 0.126008 0.000000
-0.444012 -0.244098 0.000000
0.094943 -0.497711 0.000000
0.490768 0.126008 0.000000
-0.502691 0.063505 0.000000
0.215736 -0.458463 0.000000
0.031815 -0.505686 0.000000
0.471105 -0.186524 0.000000
-0.471105 -0.186524 0.000000
0.502691 -0.063505 0.000000
-0.215736 -0.458463 0.000000
-0.094943 -0.497711 0.000000
-0.409918 -0.297823 0.000000
-0.471105 0.186524 0.000000
0.502691 0.063505 0.000000
-0.156575 -0.481887 0.000000
0.490768 -0.126008 0.000000
-0.369358 -0.346850 0.000000
-0.444012 0.244098 0.000000
-0.409918 0.297823 0.000000
-0.271496 -0.427809 0.000000
-0.031952 0.507855 0.000000
0.445917 0.245145 0.000000
-0.272661 0.429644 0.000000
0.370943 0.348338 0.000000
-0.504847 -0.063777 0.000000
0.324359 -0.392083 0.000000
0.411676 0.299100 0.000000
-0.095351 0.499846 0.000000
0.508859 -0.000000 0.000000
-0.216662 0.460430 0.000000
-0.157246 0.483954 0.000000
0.031952 0.507855 0.000000
0.370943 -0.348338 0.000000
0.411676 -0.299100 0.000000
0.324359 0.392083 0.000000
0.473126 0.187324 0.000000
0.272661 0.429644 0.000000
-0.370943 0.348338 0.000000
-0.324359 0.392083 0.000000
0.216662 0.460430 0.000000
0.157246 -0.483954 0.000000
-0.324359 -0.392083 0.000000
0.272661 -0.429644 0.000000
0.157246 0.483954 0.000000
-0.492873 -0.126548 0.000000
-0.031952 -0.507855 0.000000
0.095351 0.499846 0.000000
0.445917 -0.245145 0.000000
-0.508859 0.000000 0.000000
-0.492873 0.126548 0.000000
-0.445917 -0.245145 0.000000
0.095351 -0.499846 0.000000
-0.504847 0.063777 0.000000
0.216662 -0.460430 0.000000
0.492873 0.126548 0.000000
0.031952 -0.507855 0.000000
0.473126 -0.187324 0.000000
-0.473126 -0.187324 0.000000
0.504847 -0.063777 0.000000
-0.216662 -0.460430 0.000000
-0.095351 -0.499846 0.000000
-0.473126 0.187324 0.000000
-0.411676 -0.299100 0.000000
-0.157246 -0.483954 0.000000
0.504847 0.063777 0.000000
0.492873 -0.126548 0.000000
-0.370943 -0.348338 0.000000
-0.445917 0.245145 0.000000
-0.411676 0.299100 0.000000
-0.272661 -0.429644 0.000000
0.318712 0.385257 0.100000
-0.318712 0.385257 0.100000
[...]
POINT_DATA 5000
SCALARS pressure float 1
LOOKUP_TABLE default
101771.770748
101771.770748
101771.770748
101771.770748
101771.770748
101771.770748
101771.770748
101771.770748
101771.770748
101771.770748
101771.770748
101771.770748
101771.770748
101771.770748
101771.770748
101771.770748
101325.000000
101325.000000
101325.000000
101325.000000
101325.000000
101325.000000
101325.000000
101325.000000
101325.000000
101325.000000
101325.000000
101325.000000
101325.000000
101325.000000
101325.000000
101325.000000
101325.000000
101325.000000
101325.000000
101325.000000
101325.000000
101325.000000
101325.000000
101325.000000
101325.000000
101325.000000
101325.000000
101325.000000
101325.000000
101325.000000
101325.000000
101325.000000
101325.000000
101325.000000
101323.665732
101324.689109
101324.045049
101324.372281
101324.978958
101324.204722
101324.537197
101323.707484
101325.000000
101323.903295
101323.788366
101323.665732
101324.818470
101324.204722
101324.372281
101324.537197
101324.372281
101324.204722
101324.045049
101323.903295
101324.204722
101323.788366
101324.917153
101323.788366
101324.045049
101323.707484
101323.665732
101325.000000
101324.689109
101324.689109
101323.707484
101324.917153
101324.917153
101324.978958
101323.903295
101323.665732
101324.978958
101324.818470
101324.818470
101323.903295
101323.707484
101324.537197
101324.978958
101324.917153
101323.788366
101324.372281
101324.818470
101324.689109
101324.537197
101324.045049
101322.127917
101324.330789
101322.944417
101323.648801
101324.954706
101323.288122
101324.003792
101322.217791
101325.000000
101322.639284
101322.391893
101322.127917
101324.609247
101323.648801
101324.003792
101323.288122
101323.648801
101323.288122
101322.944417
101322.639284
101323.288122
101322.391893
101324.821668
101322.391893
101322.944417
101322.217791
101322.127917
101325.000000
101324.330789
101324.330789
101322.217791
101324.821668
101324.821668
101324.954706
101322.639284
101322.127917
101324.609247
101324.954706
101324.609247
101322.639284
101322.217791
101324.003792
101324.954706
101322.391893
101324.821668
101323.648801
101324.609247
101324.330789
101324.003792
101322.944417
101320.316348
101323.908684
101321.647856
101322.796531
101324.926136
101322.208353
101323.375433
101320.462911
101325.000000
101321.150259
101320.746828
101320.316348
101324.362779
101322.796531
101323.375433
101322.208353
101321.647856
101322.796531
101322.208353
101321.150259
101322.208353
101320.746828
101324.709185
101320.746828
101321.647856
101320.316348
101320.462911
101325.000000
101323.908684
101323.908684
101324.709185
101320.462911
101324.709185
101324.926136
101321.150259
101320.316348
101324.362779
101324.926136
101324.362779
101321.150259
101320.462911
101323.375433
101324.926136
101320.746828
101324.709185
101324.362779
101322.796531
101323.908684
101323.375433
101321.647856
101318.181040
101323.411146
101320.119592
101321.791955
101324.892461
101320.935623
101322.634782
101318.394422
101325.000000
101319.395138
101318.807779
101318.181040
101324.072266
101321.791955
101322.634782
101320.935623
101320.119592
101321.791955
101320.935623
101319.395138
101320.935623
101318.807779
101320.119592
101324.576601
101318.807779
101318.181040
101318.394422
101325.000000
101323.411146
101323.411146
101324.576601
101318.394422
101324.576601
101324.892461
101319.395138
101318.181040
101324.072266
101324.892461
101324.072266
101319.395138
101318.394422
101322.634782
101324.072266
101324.892461
101318.807779
101324.576601
101321.791955
101323.411146
101322.634782
101320.119592
101315.666494
101322.825244
101318.319903
101320.608963
101324.852805
101319.436851
101321.762589
101315.958563
101325.000000
101317.328300
101316.524348
101315.666494
101320.608962
101321.762589
101323.730157
101319.436851
101318.319903
101320.608962
101319.436851
101317.328300
101316.524348
101319.436851
101318.319903
101324.420469
101316.524348
101315.666494
101315.958563
101325.000000
101322.825244
101324.420469
101322.825244
101315.958562
101324.420469
101324.852805
101317.328300
101315.666494
101323.730157
101323.730157
101324.852805
101317.328300
101315.958562
101321.762589
101323.730157
101324.852805
101316.524348
101324.420469
101320.608962
101322.825244
101321.762589
101318.319903
101312.711419
101322.136696
101316.204922
101319.218719
101324.806202
101317.675506
101320.737594
101313.095959
101325.000000
101314.899368
101313.840877
101312.711418
101319.218719
101320.737594
101317.675506
101323.328113
101316.204922
101319.218719
101317.675506
101314.899368
101313.840877
101317.675506
101316.204922
101313.840877
101324.236984
101312.711418
101313.095959
101322.136696
101325.000000
101324.236984
101322.136696
101313.095959
101324.806202
101314.899368
101324.236984
101312.711418
101323.328113
101323.328113
101324.806202
101314.899368
101313.095959
101323.328113
101320.737594
101313.840877
101324.806202
101324.236984
101319.218719
101322.136696
101320.737594
101316.204922
101771.770748
101771.770748
101771.770748
101771.770748
101771.770748
101771.770748
101771.770748
101771.770748
101771.770748
101771.770748
101771.770748
101771.770748
101771.770748
101771.770748
101771.770748
101771.770748
101325.000000
101325.000000
101325.000000
101325.000000
101325.000000
101325.000000
101325.000000
101325.000000
101325.000000
101325.000000
101325.000000
101325.000000
101325.000000
101325.000000
101325.000000
101325.000000
101325.000000
101325.000000
101325.000000
101325.000000
101325.000000
101325.000000
101325.000000
101325.000000
101325.000000
101325.000000
101325.000000
101325.000000
101325.000000
101325.000000
101325.000000
101325.000000
101325.000000
101325.000000
101323.665732
101324.689109
101323.707484
101324.537197
101324.537197
101323.788366
101324.372281
101323.788366
101324.045049
101323.903295
101324.045049
101324.204722
101324.689109
101323.665732
101324.978958
101323.788366
101324.372281
101324.818470
101324.917153
101323.903295
101324.204722
101323.707484
101324.204722
101324.045049
101324.917153
101324.689109
101325.000000
101323.903295
101324.917153
101323.707484
101323.903295
101324.818470
101324.818470
101325.000000
101324.978958
101324.372281
101323.665732
101323.665732
101324.204722
101324.978958
101324.689109
101324.818470
101324.537197
101324.978958
101323.788366
101323.707484
101324.045049
101324.917153
101324.372281
101324.537197
101309.248084
101321.329721
101317.589360
101313.726174
101324.751583
101315.611218
101319.536306
101309.741001
101325.000000
101312.052671
101310.695862
101309.248084
101317.589360
101319.536306
101315.611218
101322.856919
101313.726174
101312.052671
101317.589360
101315.611218
101310.695862
101315.611218
101313.726174
101310.695862
101324.021940
101309.248084
101309.741001
101321.329721
101325.000000
101324.021940
101321.329721
101309.741001
101312.052671
101324.751583
101324.021940
101309.248084
101322.856919
101322.856919
101324.751583
101312.052671
101322.856919
101309.741001
101319.536306
101310.695862
101324.751583
101324.021940
101317.589360
101321.329721
101319.536306
101313.726174
101322.127917
101324.330789
101322.217791
101324.003792
101324.003792
101323.648801
101322.391893
101322.391893
101322.944417
101322.639284
101322.944417
101323.288122
101324.330789
101322.127917
101324.954706
101322.391893
101323.648801
101324.609247
101324.821668
101322.639284
101323.288122
101322.217791
101323.288122
101322.944417
101324.821668
101324.330789
101322.639284
101325.000000
101324.821668
101322.217791
101322.639284
101324.609247
101324.609247
101324.954706
101325.000000
101323.648801
101322.127917
101322.127917
101323.288122
101324.954706
101324.330789
101324.609247
101324.003792
101324.954706
101322.391893
101322.217791
101322.944417
101324.821668
101323.648801
101324.003792
101320.316348
101323.908684
101320.462911
101323.375433
101323.375433
101322.796531
101320.746828
101320.746828
101321.647856
101321.150259
101321.647856
101322.208353
101323.908684
101324.926136
101320.316348
101320.746828
101322.796531
101324.709185
101324.362779
101321.150259
101322.208353
101320.462911
101322.208353
101321.647856
101324.709185
101323.908684
101321.150259
101325.000000
101324.709185
101320.462911
101321.150259
101324.362779
101324.362779
101324.926136
101325.000000
101322.796531
101320.316348
101320.316348
101322.208353
101324.926136
101323.908684
101324.362779
101323.375433
101324.926136
101320.746828
101320.462911
101321.647856
101324.709185
101322.796531
101323.375433
101305.198605
101320.386171
101315.684244
101310.827915
101324.687720
101313.197564
101318.131707
101305.818240
101325.000000
101308.724191
101307.018576
101305.198605
101318.131707
101315.684244
101313.197564
101322.305979
101310.827915
101308.724191
101315.684244
101313.197564
101307.018576
101310.827915
101313.197564
101307.018576
101323.770502
101305.198605
101320.386171
101305.818240
101325.000000
101323.770502
101320.386171
101305.818240
101308.724191
101324.687720
101323.770502
101305.198605
101322.305979
101322.305979
101324.687720
101308.724191
101322.305979
101305.818240
101318.131707
101307.018576
101324.687720
101320.386171
101323.770502
101315.684244
101310.827915
101318.131707
101318.181040
101323.411146
101318.394422
101322.634782
101322.634782
101321.791955
101318.807779
101318.807779
101320.119592
101320.119592
101319.395138
101320.935623
101323.411146
101324.892461
101318.181040
101318.807779
101321.791955
101324.576601
101324.072266
101319.395138
101320.935623
101318.394422
101320.935623
101320.119592
101324.576601
101323.411146
101319.395138
101325.000000
101324.576601
101318.394422
101319.395138
101324.072266
101324.072266
101324.892461
101325.000000
101321.791955
101318.181040
101318.181040
101320.935623
101324.892461
101323.411146
101324.072266
101322.634782
101324.892461
101318.807779
101318.394422
101320.119592
101324.576601
101321.791955
101322.634782
101315.666494
101322.825244
101321.762589
101315.958563
101321.762589
101320.608962
101316.524348
101316.524348
101318.319903
101318.319903
101317.328300
101319.436851
101322.825244
101324.852805
101316.524348
101315.666494
101320.608962
101324.420469
101317.328300
101323.730157
101319.436851
101315.958563
101318.319903
101319.436851
101324.420469
101322.825244
101317.328300
101325.000000
101315.958562
101324.420469
101317.328300
101323.730157
101323.730157
101324.852805
101325.000000
101320.608962
101315.666494
101315.666494
101319.436851
101324.852805
101322.825244
101323.730157
101321.762589
101316.524348
101315.958562
101324.852805
101318.319903
101324.420469
101320.608962
101321.762589
101300.472426
101319.284946
101313.460767
101307.445334
101324.613185
101310.380569
101316.492389
101301.239954
101325.000000
101304.839495
101302.726785
101300.472425
101316.492389
101313.460767
101310.380569
101307.445334
101321.662972
101304.839495
101313.460767
101310.380569
101302.726785
101307.445334
101310.380569
101302.726785
101323.477047
101300.472425
101319.284946
101301.239954
101325.000000
101323.477047
101301.239954
101319.284946
101304.839495
101324.613185
101323.477047
101300.472425
101321.662972
101321.662972
101321.662972
101304.839495
101324.613185
101301.239954
101302.726785
101316.492389
101324.613185
101319.284946
101323.477047
101313.460767
101307.445334
101316.492389
101312.711419
101322.136696
101320.737594
101313.095959
101320.737594
101319.218719
101313.840877
101313.840877
101316.204922
101316.204922
101314.899368
101317.675506
101322.136696
101324.806202
101313.840877
101312.711418
101319.218719
101324.236984
101314.899368
101323.328113
101317.675506
101316.204922
101313.095959
101317.675506
101324.236984
101322.136696
101314.899368
101325.000000
101313.095959
101324.236984
101314.899368
101323.328113
101323.328113
101324.806202
101325.000000
101319.218719
101312.711418
101312.711418
101317.675506
101323.328113
101322.136696
101324.806202
101320.737594
101313.840877
101313.095959
101316.204922
101324.806202
101324.236984
101319.218719
101320.737594
101309.248084
101321.329721
101319.536306
101319.536306
101317.589360
101309.741001
101310.695862
101310.695862
101313.726174
101313.726174
101312.052671
101315.611218
101321.329721
101324.751583
101310.695862
101309.248084
101317.589360
101324.021940
101312.052671
101322.856919
101315.611218
101313.726174
101309.741001
101324.021940
101321.329721
101315.611218
101312.052671
101309.741001
101325.000000
101312.052671
101324.021940
101322.856919
101322.856919
101324.751583
101325.000000
101309.248084
101317.589360
101309.248084
101315.611218
101322.856919
101321.329721
101324.751583
101319.536306
101310.695862
101309.741001
101313.726174
101324.751583
101324.021940
101317.589360
101319.536306
101294.990133
101318.007543
101310.881570
101303.521595
101324.526726
101307.112900
101314.590806
101295.929216
101325.000000
101300.333310
101297.748377
101294.990133
101314.590806
101310.881570
101307.112900
101303.521595
101300.333310
101320.917095
101297.748377
101310.881570
101307.112900
101303.521595
101297.748377
101307.112900
101323.136643
101318.007543
101294.990133
101295.929216
101325.000000
101323.136643
101295.929216
101318.007543
101300.333310
101324.526726
101323.136643
101294.990133
101320.917095
101320.917095
101320.917095
101300.333310
101324.526726
101295.929216
101297.748376
101314.590806
101318.007543
101324.526726
101323.136643
101310.881570
101303.521595
101314.590806
101305.198605
101320.386171
101318.131707
101318.131707
101315.684244
101307.018576
101305.818240
101307.018576
101310.827915
101310.827915
101313.197564
101308.724191
101320.386171
101307.018576
101324.687720
101305.198605
101315.684244
101323.770502
101308.724191
101322.305979
101313.197564
101310.827915
101305.818240
101320.386171
101323.770502
101313.197564
101308.724191
101305.818240
101308.724191
101325.000000
101323.770502
101322.305979
101322.305979
101324.687720
101325.000000
101305.198605
101305.198605
101315.684244
101322.305979
101313.197564
101320.386171
101324.687720
101318.131707
101307.018576
101305.818240
101310.827915
101323.770502
101324.687720
101315.684244
101318.131707
101288.661628
101316.532968
101307.904264
101298.992211
101324.426922
101303.340853
101312.395707
101289.798745
101325.000000
101292.001532
101295.131578
101288.661627
101312.395707
101307.904264
101303.340853
101298.992211
101295.131578
101320.056088
101292.001532
101298.992211
101307.904264
101303.340853
101292.001532
101322.743697
101316.532968
101303.340853
101288.661627
101289.798745
101322.743697
101325.000000
101289.798745
101316.532968
101295.131578
101324.426922
101288.661627
101322.743697
101320.056088
101320.056088
101320.056088
101295.131578
101289.798745
101324.426922
101292.001532
101312.395707
101316.532968
101324.426922
101322.743697
101307.904264
101298.992211
101312.395707
101300.472425
101319.284946
101316.492389
101316.492389
101313.460767
101302.726785
101301.239954
101302.726785
101307.445334
101307.445334
101310.380569
101304.839495
101319.284946
101302.726785
101324.613185
101313.460767
101323.477047
101300.472425
101304.839495
101321.662972
101310.380569
101307.445334
101319.284946
101301.239954
101323.477047
101304.839495
101310.380569
101304.839495
101301.239954
101325.000000
101323.477047
101321.662972
101321.662972
101324.613185
101325.000000
101300.472425
101300.472425
101313.460767
101321.662972
101310.380569
101319.284946
101324.613185
101302.726785
101316.492389
101301.239954
101307.445334
101323.477047
101324.613185
101313.460767
101316.492389
101294.990133
101318.007543
101314.590806
101297.748377
101310.881570
101314.590806
101295.929216
101297.748377
101303.521595
101303.521595
101307.112900
101318.007543
101300.333310
101297.748377
101324.526726
101310.881570
101323.136643
101294.990133
101300.333310
101307.112900
101303.521595
101320.917095
101318.007543
101295.929216
101323.136643
101300.333310
101300.333310
101307.112900
101295.929216
101325.000000
101323.136643
101320.917095
101320.917095
101324.526726
101294.990133
101294.990133
101325.000000
101320.917095
101310.881570
101307.112900
101318.007543
101324.526726
101297.748376
101303.521595
101295.929216
101314.590806
101323.136643
101324.526726
101310.881570
101314.590806
101281.390898
101314.838850
101304.483680
101293.788467
101299.007203
101324.312258
101309.873789
101282.755535
101325.000000
101285.399064
101289.155382
101309.873789
101281.390898
101304.483680
101299.007203
101289.155382
101293.788467
101319.066890
101285.399064
101293.788467
101285.399064
101304.483679
101314.838850
101299.007203
101322.292247
101281.390898
101299.007203
101282.755535
101322.292247
101325.000000
101282.755535
101314.838850
101289.155382
101324.312258
101281.390898
101322.292247
101319.066890
101319.066890
101319.066890
101289.155382
101282.755535
101285.399064
101324.312258
101314.838850
101309.873788
101324.312258
101322.292247
101293.788467
101304.483679
101309.873788
101288.661628
101316.532968
101312.395707
101292.001532
101307.904264
101312.395707
101289.798745
101292.001532
101298.992211
101298.992211
101303.340853
101316.532968
101292.001532
101295.131578
101324.426922
101322.743697
101307.904264
101295.131578
101288.661627
101298.992211
101303.340853
101316.532968
101320.056088
101295.131578
101322.743697
101295.131578
101289.798745
101303.340853
101289.798745
101320.056088
101320.056088
101325.000000
101322.743697
101324.426922
101288.661627
101288.661627
101320.056088
101325.000000
101307.904264
101316.532968
101303.340853
101324.426922
101292.001532
101298.992211
101289.798745
101312.395707
101322.743697
101324.426922
101307.904264
101312.395707
101273.062828
101312.898366
101300.565659
101287.827972
101294.043335
101324.180920
101306.985122
101274.688071
101325.000000
101306.985122
101300.565659
101277.836437
101282.310103
101273.062828
101282.310103
101294.043335
101287.827972
101277.836437
101287.827972
101317.933839
101312.898366
101277.836437
101321.775145
101300.565659
101294.043335
101273.062828
101294.043335
101321.775145
101274.688071
101325.000000
101274.688071
101312.898366
101282.310103
101324.180920
101317.933839
101273.062828
101317.933839
101321.775145
101282.310103
101317.933839
101274.688071
101277.836437
101324.180920
101312.898366
101306.985122
101324.180920
101287.827971
101321.775145
101300.565659
101306.985122
101281.390898
101314.838850
101309.873789
101285.399064
101304.483680
101309.873789
101282.755535
101293.788467
101285.399064
101299.007203
101293.788467
101314.838850
101285.399064
101322.292247
101324.312258
101304.483680
101289.155382
101289.155382
101281.390898
101293.788467
101299.007203
101289.155382
101314.838850
101289.155382
101322.292247
101319.066890
101282.755535
101282.755535
101299.007203
101319.066890
101319.066890
101322.292247
101325.000000
101324.312258
101319.066890
101281.390898
101281.390898
101325.000000
101314.838850
101304.483679
101299.007203
101285.399064
101324.312258
101293.788467
101282.755535
101309.873788
101322.292247
101324.312258
101304.483679
101309.873788
101263.631833
101310.700894
101296.128757
101281.078101
101288.422079
101324.032187
101303.713896
101265.552195
101325.000000
101303.713896
101296.128757
101274.558272
101288.422079
101281.078100
101269.272257
101263.631833
101274.558272
101269.272257
101281.078101
101310.700894
101269.272256
101316.650733
101321.189561
101263.631833
101296.128757
101288.422079
101288.422079
101321.189561
101265.552195
101325.000000
101265.552195
101310.700894
101274.558271
101316.650732
101324.032187
101263.631833
101274.558271
101316.650732
101321.189561
101316.650732
101269.272256
101265.552195
101310.700894
101324.032187
101303.713896
101281.078100
101324.032187
101321.189561
101296.128757
101303.713896
101273.062828
101306.985122
101312.898366
101277.836437
101300.565659
101306.985122
101274.688071
101287.827972
101294.043335
101277.836437
101312.898366
101287.827972
101277.836437
101321.775145
101300.565659
101324.180920
101282.310103
101282.310103
101273.062828
101282.310103
101287.827972
101294.043335
101312.898366
101282.310103