/*--------------------------------*- C++ -*----------------------------------*\
| =========                 |                                                 |
| \\      /  F ield         | OpenFOAM: The Open Source CFD Toolbox           |
|  \\    /   O peration     | Version:  2406                                  |
|   \\  /    A nd           | Website:  www.openfoam.com                      |
|    \\/     M anipulation  |                                                 |
\*---------------------------------------------------------------------------*/
FoamFile
{
    version     2.0;
    format      ascii;
    arch        "LSB;label=32;scalar=64";
    class       volScalarField;
    location    "700";
    object      k;
}
// * * * * * * * * * * * * * * * * * * * * * * * * * * * * * * * * * * * * * //

dimensions      [0 2 -2 0 0 0 0];

internalField   nonuniform List<scalar> 
16045
(
0.05477566
0.047087646
0.041212735
0.036588001
0.032859039
0.029792657
0.027229255
0.025056279
0.023192149
0.021576232
0.020162887
0.018916569
0.017810034
0.016820931
0.015932268
0.01512907
0.014400484
0.013735837
0.013128197
0.012569465
0.012055362
0.011579341
0.011139023
0.010728778
0.01034766
0.0099905477
0.0096576332
0.0093440297
0.0090508753
0.0087733274
0.008513345
0.0082659932
0.0080339702
0.0078121439
0.0076039063
0.007403835
0.007216005
0.0070346097
0.0068644279
0.0066991681
0.0065443602
0.006393122
0.0062517959
0.006112809
0.0059833741
0.0058551505
0.0057362548
0.00561754
0.005508023
0.0053977545
0.0052966145
0.0051938854
0.005100256
0.0050042829
0.0049174171
0.0048275147
0.0047467685
0.0046623316
0.0045871496
0.0045076409
0.0044375416
0.0043624828
0.0042970465
0.0042260099
0.0041648716
0.0040974698
0.0040403145
0.003976193
0.0039227491
0.0038615861
0.00381161
0.003753124
0.0037063852
0.0036503392
0.003606614
0.0035528094
0.0035118832
0.0034601512
0.0034218235
0.0033720106
0.0033361108
0.0032880558
0.0032544556
0.0032079937
0.0031765709
0.0031315872
0.0031021789
0.0030586015
0.0030310816
0.0029887592
0.0029631084
0.0029218887
0.0028979653
0.0028579111
0.0028354915
0.0027964212
0.0027763072
0.0027375885
0.0027160005
0.0026735613
0.05477566
0.04708764
0.041212721
0.03658798
0.032859011
0.029792623
0.027229217
0.025056236
0.023192102
0.021576182
0.020162834
0.018916513
0.017809977
0.016820872
0.015932209
0.015129009
0.014400423
0.013735775
0.013128135
0.012569403
0.012055301
0.01157928
0.011138963
0.010728719
0.010347602
0.0099904917
0.0096575791
0.0093439775
0.0090508253
0.0087732797
0.0085132998
0.0082659506
0.0080339304
0.0078121069
0.0076038722
0.0074038038
0.0072159766
0.0070345842
0.0068644053
0.0066991482
0.006544343
0.0063931074
0.0062517838
0.0061127993
0.0059833664
0.005855145
0.0057362511
0.0056175381
0.0055080227
0.0053977557
0.0052966169
0.0051938891
0.0051002607
0.0050042886
0.0049174235
0.0048275219
0.0047467763
0.0046623399
0.0045871584
0.0045076501
0.0044375512
0.0043624926
0.0042970566
0.0042260201
0.004164882
0.0040974803
0.0040403252
0.0039762038
0.0039227599
0.0038615969
0.0038116208
0.0037531348
0.0037063961
0.00365035
0.0036066248
0.0035528201
0.0035118939
0.0034601619
0.0034218341
0.0033720211
0.0033361213
0.0032880662
0.003254466
0.003208004
0.0031765812
0.0031315974
0.003102189
0.0030586116
0.0030310917
0.0029887692
0.0029631183
0.0029218984
0.002897975
0.0028579207
0.0028355011
0.0027964307
0.0027763166
0.0027375979
0.0027160099
0.0026735705
0.05477566
0.047087638
0.041212717
0.036587974
0.032859004
0.029792614
0.027229206
0.025056225
0.02319209
0.02157617
0.020162821
0.0189165
0.017809964
0.016820859
0.015932195
0.015128995
0.01440041
0.013735762
0.013128123
0.012569391
0.012055289
0.01157927
0.011138954
0.010728712
0.010347596
0.0099904874
0.0096575766
0.009343977
0.009050827
0.0087732836
0.0085133059
0.0082659591
0.0080339413
0.0078121201
0.0076038877
0.0074038216
0.0072159967
0.0070346063
0.0068644293
0.006699174
0.0065443705
0.0063931362
0.0062518138
0.0061128304
0.0059833985
0.0058551777
0.0057362844
0.0056175716
0.0055080566
0.0053977897
0.0052966509
0.0051939229
0.0051002944
0.005004322
0.0049174566
0.0048275545
0.0047468085
0.0046623717
0.0045871898
0.0045076809
0.0044375815
0.0043625225
0.004297086
0.004226049
0.0041649104
0.0040975083
0.0040403527
0.0039762307
0.0039227865
0.003861623
0.0038116465
0.0037531602
0.003706421
0.0036503745
0.003606649
0.0035528439
0.0035119174
0.003460185
0.0034218569
0.0033720436
0.0033361435
0.0032880881
0.0032544876
0.0032080253
0.0031766023
0.0031316181
0.0031022096
0.0030586318
0.0030311117
0.002988789
0.002963138
0.0029219178
0.0028979942
0.0028579396
0.0028355199
0.0027964492
0.002776335
0.002737616
0.0027160279
0.0026735882
0.05477566
0.047087637
0.041212715
0.036587969
0.032858996
0.029792603
0.027229193
0.025056208
0.023192072
0.021576149
0.020162798
0.018916475
0.017809936
0.01682083
0.015932165
0.015128964
0.014400378
0.01373573
0.01312809
0.012569359
0.012055257
0.011579239
0.011138923
0.010728682
0.010347569
0.0099904619
0.0096575534
0.0093439563
0.0090508089
0.0087732685
0.008513294
0.0082659504
0.0080339359
0.0078121181
0.0076038892
0.0074038264
0.0072160047
0.0070346175
0.0068644436
0.0066991912
0.0065443902
0.0063931585
0.0062518384
0.0061128569
0.0059834268
0.0058552076
0.0057363157
0.0056176042
0.0055080901
0.005397824
0.0052966859
0.0051939584
0.0051003302
0.005004358
0.0049174928
0.0048275909
0.0047468449
0.004662408
0.0045872259
0.0045077169
0.0044376173
0.004362558
0.0042971213
0.004226084
0.0041649451
0.0040975426
0.0040403867
0.0039762644
0.0039228199
0.003861656
0.0038116793
0.0037531925
0.003706453
0.0036504062
0.0036066804
0.003552875
0.0035119482
0.0034602154
0.0034218871
0.0033720734
0.003336173
0.0032881173
0.0032545166
0.0032080539
0.0031766307
0.0031316462
0.0031022374
0.0030586593
0.0030311391
0.002988816
0.0029631648
0.0029219443
0.0028980205
0.0028579656
0.0028355457
0.0027964748
0.0027763604
0.0027376411
0.0027160528
0.0026736128
0.05477566
0.047087637
0.041212712
0.036587965
0.03285899
0.029792595
0.027229182
0.025056197
0.023192058
0.021576134
0.020162782
0.018916457
0.017809917
0.01682081
0.015932145
0.015128944
0.014400357
0.01373571
0.01312807
0.01256934
0.01205524
0.011579223
0.011138909
0.01072867
0.010347559
0.0099904552
0.0096575498
0.009343956
0.0090508123
0.0087732756
0.0085133051
0.0082659655
0.0080339552
0.0078121415
0.0076039166
0.0074038578
0.00721604
0.0070346564
0.0068644858
0.0066992365
0.0065444385
0.0063932092
0.0062518913
0.0061129117
0.0059834832
0.0058552653
0.0057363743
0.0056176635
0.0055081499
0.005397884
0.0052967459
0.0051940183
0.0051003899
0.0050044173
0.0049175516
0.004827649
0.0047469024
0.0046624648
0.004587282
0.0045077721
0.0044376718
0.0043626116
0.0042971741
0.0042261359
0.0041649962
0.0040975929
0.0040404363
0.0039763132
0.0039228679
0.0038617032
0.0038117258
0.0037532383
0.0037064982
0.0036504506
0.0036067243
0.0035529181
0.0035119908
0.0034602573
0.0034219285
0.0033721142
0.0033362134
0.003288157
0.0032545559
0.0032080926
0.003176669
0.003131684
0.0031022748
0.0030586962
0.0030311756
0.002988852
0.0029632005
0.0029219795
0.0028980554
0.0028580001
0.0028355799
0.0027965085
0.0027763938
0.0027376741
0.0027160855
0.002673645
0.05477566
0.047087636
0.041212712
0.036587963
0.032858984
0.029792588
0.027229173
0.025056185
0.023192045
0.021576118
0.020162764
0.018916437
0.017809896
0.016820787
0.015932121
0.015128919
0.014400332
0.013735684
0.013128045
0.012569315
0.012055216
0.0115792
0.011138888
0.010728652
0.010347543
0.009990442
0.0096575402
0.00934395
0.0090508104
0.0087732779
0.0085133121
0.0082659769
0.0080339715
0.0078121624
0.0076039425
0.0074038881
0.0072160749
0.0070346954
0.0068645289
0.0066992832
0.0065444885
0.0063932622
0.006251947
0.0061129696
0.005983543
0.0058553266
0.0057364369
0.005617727
0.005508214
0.0053979484
0.0052968106
0.0051940829
0.0051004544
0.0050044814
0.0049176154
0.0048277122
0.0047469651
0.0046625267
0.0045873433
0.0045078327
0.0044377316
0.0043626706
0.0042972324
0.0042261933
0.004165053
0.0040976488
0.0040404915
0.0039763676
0.0039229217
0.0038617562
0.0038117782
0.0037532898
0.0037065492
0.0036505009
0.003606774
0.0035529671
0.0035120393
0.0034603052
0.0034219759
0.0033721609
0.0033362597
0.0032882027
0.0032546012
0.0032081373
0.0031767133
0.0031317277
0.0031023182
0.003058739
0.0030312181
0.0029888939
0.0029632421
0.0029220206
0.0028980962
0.0028580403
0.0028356199
0.002796548
0.0027764331
0.0027377128
0.002716124
0.0026736829
0.05477566
0.047087636
0.04121271
0.036587959
0.032858979
0.029792581
0.027229164
0.025056175
0.02319203
0.021576103
0.020162745
0.018916419
0.017809874
0.016820766
0.015932096
0.015128896
0.014400306
0.013735661
0.013128019
0.012569294
0.012055192
0.011579182
0.011138869
0.010728639
0.01034753
0.0099904363
0.0096575353
0.0093439528
0.0090508153
0.0087732908
0.008513328
0.0082660008
0.0080339991
0.0078121975
0.0076039819
0.0074039343
0.0072161253
0.0070347519
0.0068645892
0.0066993487
0.006544557
0.006393335
0.0062520218
0.006113048
0.0059836224
0.0058554087
0.0057365192
0.0056178112
0.0055082977
0.0053980334
0.0052968946
0.0051941676
0.0051005377
0.0050045649
0.0049176973
0.004827794
0.0047470452
0.0046626064
0.0045874214
0.0045079101
0.0044378076
0.0043627456
0.0042973061
0.0042262661
0.0041651245
0.0040977193
0.0040405608
0.0039764359
0.0039229888
0.0038618225
0.0038118432
0.0037533543
0.0037066123
0.0036505636
0.0036068352
0.0035530281
0.0035120989
0.0034603644
0.0034220339
0.0033722186
0.0033363162
0.0032882588
0.0032546563
0.0032081921
0.0031767671
0.003131781
0.0031023708
0.0030587911
0.0030312695
0.0029889447
0.0029632923
0.0029220702
0.0028981454
0.0028580888
0.0028356681
0.0027965954
0.0027764802
0.0027377595
0.0027161705
0.002673728
0.054775647
0.047087652
0.04121269
0.036587977
0.032858951
0.029792601
0.027229126
0.025056195
0.02319198
0.021576127
0.02016268
0.01891645
0.017809793
0.016820807
0.015931998
0.015128949
0.014400192
0.013735728
0.013127892
0.012569373
0.012055056
0.011579275
0.011138729
0.010728744
0.010347391
0.0099905536
0.0096574018
0.0093440806
0.0090506938
0.0087734267
0.0085132239
0.0082661425
0.0080339161
0.0078123438
0.0076039202
0.0074040869
0.0072160799
0.0070349164
0.0068645497
0.0066995348
0.0065445088
0.0063935541
0.0062519499
0.0061133088
0.0059835167
0.0058557131
0.0057363792
0.0056181504
0.0055081335
0.0053983896
0.0052967239
0.0051945196
0.0051003791
0.0050048943
0.0049175644
0.0048280895
0.0047469447
0.0046628638
0.0045873543
0.00450813
0.0044377714
0.004362932
0.0042972947
0.0042264285
0.0041651235
0.004097878
0.004040544
0.0039766221
0.0039229237
0.0038620664
0.0038117069
0.0037536685
0.0037064044
0.0036509375
0.0036065754
0.0035534363
0.0035118161
0.0034607774
0.0034217553
0.0033726168
0.0033360492
0.0032886494
0.0032543845
0.0032085881
0.0031764972
0.0031321472
0.0031021574
0.0030590857
0.0030311042
0.0029892343
0.0029630982
0.0029223593
0.0028980375
0.0028581884
0.002835718
0.0027967804
0.002775298
0.0027377032
0.0027215311
0.0026691185
0.054775647
0.047087653
0.041212688
0.036587973
0.032858947
0.029792592
0.027229117
0.025056181
0.023191966
0.021576108
0.020162661
0.018916426
0.017809769
0.016820778
0.015931971
0.015128918
0.014400164
0.013735695
0.013127864
0.012569342
0.01205503
0.011579248
0.011138708
0.010728723
0.010347377
0.0099905414
0.0096573981
0.0093440799
0.0090507023
0.0087734396
0.0085132461
0.0082661704
0.0080339533
0.0078123874
0.0076039724
0.0074041457
0.0072161466
0.0070349893
0.0068646291
0.0066996197
0.0065445989
0.0063936486
0.0062520482
0.0061134105
0.0059836206
0.0058558193
0.0057364863
0.0056182591
0.005508242
0.005398499
0.0052968323
0.0051946281
0.0051004861
0.0050050011
0.0049176695
0.0048281938
0.0047470472
0.0046629653
0.0045874539
0.0045082284
0.004437868
0.0043630273
0.0042973883
0.0042265208
0.0041652142
0.0040979674
0.0040406319
0.0039767087
0.0039230089
0.0038621504
0.0038117895
0.00375375
0.0037064846
0.0036510167
0.0036066533
0.0035535132
0.0035118919
0.0034608522
0.0034218292
0.0033726897
0.0033361211
0.0032887204
0.0032544546
0.0032086574
0.0031765656
0.0031322148
0.0031022242
0.0030591517
0.0030311695
0.0029892989
0.002963162
0.0029224224
0.0028980999
0.0028582502
0.0028357792
0.002796841
0.0027753578
0.0027377622
0.0027215902
0.0026691767
0.05477566
0.047087633
0.041212704
0.036587948
0.032858964
0.029792558
0.027229133
0.025056135
0.023191984
0.021576047
0.020162683
0.018916348
0.017809799
0.016820683
0.015932011
0.015128805
0.014400215
0.013735567
0.013127929
0.012569203
0.012055109
0.011579101
0.0111388
0.010728576
0.010347482
0.0099903995
0.0096575172
0.0093439498
0.0090508339
0.0087733276
0.0085133886
0.008266082
0.008034105
0.007812325
0.0076041334
0.0074041072
0.0072163204
0.0070349666
0.006864823
0.0066995993
0.0065448229
0.0063936143
0.0062523123
0.0061133483
0.0059839299
0.0058557225
0.0057368365
0.005618132
0.0055086189
0.0053983558
0.0052972151
0.0051944873
0.0051008541
0.0050048792
0.0049180074
0.0048281008
0.0047473475
0.0046629047
0.0045877151
0.0045081994
0.0044380923
0.0043630258
0.0042975819
0.0042265374
0.0041653916
0.004097982
0.0040408196
0.0039766905
0.0039232396
0.0038620694
0.0038120866
0.0037535939
0.0037068486
0.0036507963
0.003607065
0.0035532544
0.0035123224
0.0034605847
0.0034222517
0.0033724332
0.0033365285
0.0032884681
0.0032548634
0.0032083962
0.0031769694
0.0031319804
0.0031025684
0.0030589859
0.0030314627
0.0029891353
0.0029634814
0.0029222567
0.0028983305
0.0028582714
0.0028358494
0.0027967743
0.0027766578
0.0027379346
0.0027163444
0.0026738998
0.054775659
0.047087633
0.0412127
0.036587946
0.032858957
0.02979255
0.027229121
0.025056121
0.023191964
0.021576026
0.020162657
0.018916321
0.017809766
0.016820651
0.015931973
0.015128769
0.014400174
0.013735529
0.013127887
0.012569165
0.012055068
0.011579067
0.011138765
0.010728549
0.010347456
0.0099903827
0.0096575035
0.0093439464
0.009050836
0.0087733408
0.0085134089
0.0082661138
0.0080341453
0.0078123766
0.007604194
0.0074041783
0.0072164003
0.0070350556
0.00686492
0.0066997037
0.0065449342
0.0063937308
0.0062524342
0.0061134733
0.005984059
0.0058558529
0.0057369696
0.0056182648
0.0055087535
0.0053984888
0.005297349
0.0051946189
0.0051009859
0.0050050083
0.0049181361
0.0048282266
0.0047474725
0.0046630269
0.0045878361
0.0045083177
0.0044382093
0.0043631404
0.004297695
0.0042266482
0.0041655009
0.0040980892
0.0040409254
0.0039767943
0.0039233421
0.0038621699
0.0038121859
0.0037536914
0.003706945
0.003650891
0.0036071587
0.0035533464
0.0035124135
0.0034606743
0.0034223403
0.0033725204
0.0033366149
0.0032885531
0.0032549476
0.0032084792
0.0031770516
0.0031320615
0.0031026487
0.0030590651
0.0030315411
0.0029892127
0.0029635581
0.0029223324
0.0028984055
0.0028583455
0.0028359228
0.0027968468
0.0027767298
0.0027380058
0.0027164149
0.0026739689
0.054775646
0.047087649
0.041212682
0.036587963
0.032858928
0.029792566
0.027229079
0.025056136
0.023191908
0.021576043
0.020162583
0.01891634
0.017809672
0.016820677
0.01593186
0.015128804
0.014400042
0.013735575
0.01312774
0.012569224
0.012054912
0.011579139
0.011138605
0.010728635
0.0103473
0.0099904841
0.0096573575
0.0093440637
0.009050708
0.0087734735
0.0085133063
0.0082662612
0.0080340728
0.0078125382
0.0076041526
0.0074043559
0.0072163847
0.0070352541
0.0068649187
0.0066999314
0.0065449307
0.006393997
0.0062524118
0.006113785
0.0059840057
0.0058562099
0.0057368832
0.0056186569
0.0055086428
0.0053988973
0.0052972308
0.0051950218
0.0051008781
0.0050053869
0.004918052
0.0048285695
0.0047474187
0.0046633297
0.0045878137
0.0045085812
0.0044382159
0.0043633685
0.0042977245
0.0042268506
0.0041655392
0.0040982864
0.0040409464
0.0039770174
0.0039233135
0.0038624493
0.0038120848
0.0037540398
0.0037067711
0.0036512981
0.0036069317
0.0035537868
0.0035121626
0.0034611184
0.0034220927
0.0033729489
0.0033363779
0.0032889732
0.003254705
0.003208904
0.0031768101
0.0031324556
0.003102463
0.003059387
0.003031403
0.0029895289
0.0029633903
0.0029226475
0.0028983234
0.0028584705
0.002835998
0.0027970567
0.0027755723
0.0027379738
0.0027218002
0.0026693828
0.054775645
0.047087647
0.041212679
0.036587956
0.032858921
0.029792553
0.027229065
0.025056115
0.023191886
0.021576013
0.020162552
0.018916302
0.017809634
0.01682063
0.015931814
0.015128751
0.014399992
0.013735518
0.013127688
0.012569165
0.01205486
0.011579084
0.011138558
0.010728587
0.010347262
0.0099904477
0.009657333
0.0093440441
0.0090507018
0.008773475
0.0085133222
0.0082662871
0.0080341136
0.0078125904
0.007604219
0.0074044342
0.0072164757
0.0070353567
0.0068650316
0.0067000545
0.0065450616
0.0063941362
0.0062525559
0.0061139355
0.0059841581
0.005856367
0.0057370399
0.0056188169
0.0055088006
0.0053990571
0.0052973873
0.0051951792
0.0051010316
0.0050055404
0.0049182015
0.0048287184
0.0047475637
0.0046634736
0.004587954
0.00450872
0.0044383514
0.0043635023
0.0042978554
0.0042269797
0.0041656657
0.004098411
0.0040410687
0.003977138
0.0039234318
0.0038625662
0.0038121994
0.0037541531
0.0037068822
0.003651408
0.0036070396
0.0035538936
0.0035122676
0.0034612222
0.0034221949
0.00337305
0.0033364774
0.0032890717
0.0032548021
0.0032090001
0.0031769049
0.0031325493
0.0031025556
0.0030594786
0.0030314935
0.0029896185
0.0029634789
0.002922735
0.0028984101
0.0028585562
0.0028360829
0.0027971407
0.0027756554
0.0027380559
0.0027218823
0.0026694634
0.054775657
0.047087629
0.041212693
0.03658793
0.032858932
0.029792515
0.027229074
0.025056062
0.023191892
0.021575942
0.020162558
0.018916211
0.017809642
0.016820517
0.015931827
0.015128617
0.014400012
0.013735365
0.013127717
0.012568998
0.012054901
0.011578908
0.011138611
0.010728411
0.010347331
0.0099902793
0.0096574202
0.0093438922
0.0090508087
0.0087733486
0.0085134495
0.0082661938
0.0080342618
0.0078125343
0.0076043892
0.0074044136
0.0072166712
0.0070353628
0.006865258
0.0067000722
0.0065453267
0.006394147
0.0062528667
0.0061139228
0.0059845172
0.0058563221
0.0057374411
0.0056187422
0.0055092281
0.0053989654
0.0052978194
0.0051950883
0.0051014472
0.0050054662
0.0049185852
0.0048286708
0.0047479078
0.0046634562
0.0045882569
0.004508732
0.0044386156
0.00436354
0.0042980873
0.0042270337
0.0041658798
0.0040984616
0.0040412915
0.0039771543
0.0039236963
0.0038625186
0.0038125289
0.0037540295
0.0037072775
0.0036512191
0.0036074815
0.0035536652
0.0035127274
0.0034609842
0.0034226459
0.0033728221
0.0033369127
0.0032888471
0.003255238
0.0032087659
0.003177335
0.0031323413
0.0031029256
0.0030593383
0.0030318119
0.0029894798
0.0029638229
0.0029225937
0.0028986648
0.0028586011
0.0028361768
0.0027970972
0.0027769785
0.0027382511
0.0027166589
0.0026742089
0.054775644
0.047087644
0.041212674
0.036587945
0.032858902
0.029792526
0.027229028
0.025056069
0.023191829
0.021575945
0.020162473
0.018916213
0.017809535
0.016820521
0.015931697
0.015128625
0.01439986
0.01373538
0.013127547
0.012569021
0.012054718
0.011578942
0.011138423
0.010728458
0.010347146
0.0099903437
0.009657248
0.0093439765
0.0090506592
0.0087734554
0.0085133322
0.0082663245
0.0080341836
0.0078126902
0.0076043522
0.0074045969
0.0072166702
0.0070355776
0.0068652805
0.0067003247
0.0065453547
0.0063944442
0.0062528812
0.006114269
0.005984504
0.0058567149
0.0057373959
0.0056191699
0.0055091585
0.0053994086
0.0052977409
0.0051955246
0.005101377
0.0050058769
0.0049185365
0.0048290444
0.0047478871
0.0046637885
0.0045882656
0.0045090237
0.0044386515
0.0043637952
0.0042981444
0.0042272622
0.0041659444
0.0040986837
0.0040413379
0.0039774013
0.0039236921
0.0038628208
0.0038124517
0.0037543997
0.003707127
0.0036516471
0.0036072772
0.0035541258
0.0035124985
0.0034614481
0.0034224195
0.00337327
0.0033366962
0.0032892861
0.0032550153
0.0032092092
0.0031771129
0.0031327535
0.0031027586
0.0030596782
0.0030316919
0.0029898136
0.0029636729
0.0029229259
0.0028985998
0.0028587431
0.0028362686
0.0027973236
0.0027758375
0.0027382351
0.0027220603
0.0026696386
0.054775656
0.047087625
0.041212686
0.036587917
0.032858913
0.029792485
0.027229035
0.025056009
0.02319183
0.021575864
0.020162471
0.018916108
0.017809532
0.01682039
0.015931695
0.015128468
0.014399863
0.013735201
0.013127555
0.012568825
0.012054734
0.011578735
0.01113845
0.010728249
0.010347187
0.0099901428
0.0096573073
0.0093437948
0.0090507407
0.008773304
0.0085134393
0.0082662133
0.0080343189
0.0078126249
0.0076045179
0.0074045767
0.0072168696
0.0070355933
0.0068655185
0.0067003597
0.0065456373
0.006394478
0.0062532133
0.0061142829
0.0059848859
0.0058566983
0.0057378201
0.0056191237
0.0055096084
0.0053993444
0.0052981945
0.0051954596
0.0051018131
0.0050058268
0.0049189394
0.004829019
0.0047482495
0.0046637916
0.0045885859
0.0045090547
0.0044389322
0.0043638505
0.0042983921
0.0042273327
0.0041661736
0.0040987499
0.0040415751
0.0039774327
0.0039239703
0.0038627878
0.0038127942
0.0037542902
0.0037075348
0.0036514718
0.0036077312
0.0035539106
0.0035129701
0.0034612228
0.003422882
0.0033730543
0.0033371426
0.0032890733
0.0032554621
0.0032089865
0.0031775537
0.0031325566
0.0031031391
0.0030595486
0.0030320204
0.0029896853
0.0029640268
0.0029227946
0.0028988641
0.0028587978
0.0028363718
0.0027972896
0.0027771696
0.0027384394
0.0027168457
0.0026743934
0.054775656
0.047087625
0.041212681
0.036587909
0.032858899
0.029792468
0.02722901
0.02505598
0.023191791
0.021575821
0.020162417
0.018916049
0.017809462
0.016820318
0.01593161
0.015128383
0.014399765
0.013735104
0.013127447
0.012568721
0.012054621
0.011578629
0.011138338
0.010728146
0.010347083
0.009990051
0.0096572202
0.0093437229
0.0090506794
0.008773261
0.0085134123
0.008266207
0.0080343325
0.0078126606
0.0076045757
0.0074046558
0.0072169709
0.007035713
0.0068656585
0.0067005138
0.0065458081
0.0063946577
0.0062534061
0.0061144792
0.005985092
0.005856903
0.005738032
0.0056193309
0.0055098203
0.0053995496
0.0052984026
0.0051956601
0.0051020149
0.0050060211
0.004919134
0.0048292065
0.0047484363
0.004663972
0.004588765
0.0045092283
0.004439104
0.0043640175
0.0042985571
0.0042274937
0.0041663324
0.004098905
0.0040417282
0.0039775824
0.0039241184
0.0038629324
0.0038129375
0.0037544301
0.0037076738
0.0036516075
0.0036078661
0.0035540423
0.0035131011
0.003461351
0.0034230094
0.0033731792
0.0033372666
0.003289195
0.003255583
0.0032091053
0.0031776716
0.0031326726
0.0031032542
0.0030596621
0.0030321329
0.0029897962
0.0029641368
0.0029229032
0.0028989718
0.0028589041
0.0028364772
0.0027973937
0.002777273
0.0027385416
0.0027169467
0.0026744927
0.054775643
0.047087639
0.04121266
0.03658792
0.032858864
0.029792472
0.027228956
0.025055977
0.023191715
0.021575809
0.020162315
0.018916031
0.017809331
0.016820294
0.01593145
0.015128357
0.014399576
0.013735078
0.013127234
0.012568696
0.012054389
0.011578609
0.011138095
0.010728136
0.01034684
0.0099900562
0.0096569902
0.0093437508
0.0090504764
0.0087733182
0.0085132502
0.0082662997
0.0080342227
0.0078127937
0.007604523
0.0074048333
0.0072169707
0.0070359385
0.0068656966
0.0067007905
0.0065458629
0.0063949887
0.0062534543
0.0061148647
0.0059851157
0.0058573372
0.0057380242
0.0056197997
0.0055097866
0.005400032
0.0052983581
0.0051961332
0.0051019765
0.0050064658
0.0049191149
0.0048296116
0.0047484434
0.0046643334
0.0045887998
0.004509547
0.0044391647
0.004364298
0.0042986379
0.004227746
0.0041664196
0.0040991498
0.0040417961
0.0039778511
0.0039241348
0.0038632556
0.00381288
0.0037548206
0.0037075421
0.0036520552
0.00360768
0.003554522
0.0035128899
0.0034618332
0.0034228002
0.0033736447
0.0033370669
0.0032896511
0.0032553767
0.0032095651
0.0031774654
0.0031331008
0.0031031027
0.0030600173
0.003032028
0.002990145
0.0029640015
0.0029232499
0.0028989213
0.0028590601
0.0028365833
0.0027976339
0.0027761455
0.0027385389
0.0027223623
0.0026699351
0.054775654
0.04708762
0.041212671
0.036587891
0.03285887
0.029792426
0.027228954
0.025055908
0.023191702
0.021575714
0.020162292
0.018915906
0.017809299
0.016820138
0.015931412
0.015128169
0.014399533
0.013734859
0.013127188
0.012568453
0.012054342
0.011578348
0.011138053
0.010727867
0.010346808
0.0099897928
0.0096569762
0.0093435071
0.0090504895
0.008773111
0.0085132993
0.0082661439
0.0080343157
0.0078127
0.0076046658
0.0074048031
0.0072171675
0.0070359622
0.0068659497
0.0067008487
0.0065461738
0.0063950563
0.0062538226
0.0061149183
0.005985537
0.0058573622
0.0057384877
0.0056197941
0.0055102741
0.0054000062
0.0052988466
0.0051961035
0.0051024447
0.0050064479
0.0049195475
0.0048296155
0.0047488331
0.0046643635
0.0045891457
0.0045096029
0.0044394694
0.0043643766
0.0042989082
0.0042278384
0.0041666702
0.0040992368
0.0040420538
0.0039779025
0.0039244325
0.0038632419
0.0038132411
0.0037547298
0.0037079677
0.0036518982
0.0036081513
0.0035543245
0.0035133782
0.0034616251
0.003423279
0.0033734458
0.0033375293
0.0032894547
0.0032558391
0.0032093584
0.0031779215
0.0031329195
0.0031034984
0.003059903
0.0030323716
0.0029900316
0.0029643701
0.0029231333
0.0028992001
0.0028591291
0.0028367008
0.002797614
0.0027774918
0.0027387573
0.0027171615
0.0026747038
0.05477564
0.047087633
0.041212648
0.0365879
0.032858833
0.029792427
0.027228895
0.025055897
0.023191617
0.021575691
0.020162176
0.018915872
0.01780915
0.016820093
0.015931227
0.015128115
0.014399313
0.013734798
0.013126937
0.012568386
0.012054066
0.011578279
0.01113776
0.010727802
0.010346511
0.0099897387
0.0096566902
0.0093434751
0.0090502325
0.0087731125
0.0085130904
0.0082661906
0.0080341708
0.0078128011
0.0076045932
0.0074049653
0.0072171638
0.0070361883
0.0068659993
0.0067011387
0.0065462514
0.0063954085
0.0062539008
0.0061153283
0.0059855938
0.0058578208
0.0057385129
0.0056202858
0.0055102716
0.0054005094
0.0052988302
0.0051965953
0.0051024313
0.0050069096
0.0049195506
0.0048300362
0.0047488598
0.0046647394
0.0045891979
0.0045099354
0.0044395456
0.0043646702
0.0042990031
0.0042281032
0.0041667705
0.0040994935
0.004042134
0.0039781824
0.003924461
0.0038635754
0.0038131953
0.00375513
0.0037078474
0.003652355
0.0036079761
0.0035548129
0.0035131774
0.0034621159
0.0034230797
0.0033739198
0.003337339
0.0032899189
0.0032556418
0.0032098262
0.0031777239
0.0031333555
0.0031033551
0.0030602659
0.0030322745
0.0029903878
0.0029642423
0.0029234872
0.0028991567
0.0028592922
0.0028368136
0.002797861
0.002776371
0.0027387612
0.0027225832
0.002670152
0.054775653
0.047087613
0.04121266
0.036587868
0.032858837
0.029792375
0.027228887
0.02505582
0.023191596
0.021575583
0.020162142
0.018915728
0.017809102
0.016819911
0.015931167
0.015127893
0.014399242
0.013734538
0.013126855
0.012568092
0.012053976
0.011577959
0.011137666
0.010727468
0.01034642
0.0099894046
0.0096566125
0.0093431599
0.0090501816
0.0087728382
0.008513081
0.0082659788
0.0080342173
0.007812668
0.0076047069
0.0074049154
0.007217351
0.0070362123
0.0068662602
0.0067012132
0.0065465827
0.0063955029
0.0062542962
0.0061154136
0.0059860444
0.0058578783
0.0057390048
0.0056203109
0.0055107851
0.0054005111
0.0052993422
0.0051965898
0.0051029204
0.005006913
0.0049200018
0.0048300591
0.0047492664
0.0046647864
0.0045895591
0.0045100067
0.0044398645
0.0043647628
0.0042992867
0.0042282088
0.0041670336
0.0040995929
0.0040424036
0.0039782455
0.0039247699
0.0038635731
0.0038135674
0.0037550501
0.0037082837
0.0036522084
0.0036084577
0.0035546256
0.0035136759
0.0034619177
0.0034235685
0.0033737305
0.0033378111
0.003289732
0.0032561137
0.0032096287
0.0031781894
0.0031331832
0.0031037597
0.0030601606
0.0030326269
0.0029902833
0.0029646197
0.0029233794
0.0028994442
0.0028593699
0.0028369396
0.0027978497
0.0027777258
0.002738988
0.0027173903
0.0026749297
0.054775652
0.04708761
0.041212652
0.036587855
0.032858817
0.029792346
0.027228849
0.025055771
0.023191535
0.021575509
0.020162055
0.018915628
0.017808988
0.016819781
0.015931023
0.015127734
0.014399068
0.01373435
0.013126654
0.012567877
0.012053751
0.011577722
0.011137423
0.010727217
0.01034617
0.0099891537
0.009656371
0.0093429262
0.009049968
0.008772643
0.0085129178
0.008265845
0.0080341256
0.0078126146
0.0076047016
0.0074049523
0.0072174353
0.0070363356
0.0068664248
0.0067014077
0.0065468086
0.0063957464
0.0062545613
0.006115684
0.0059863286
0.0058581581
0.0057392933
0.0056205888
0.005511068
0.0054007805
0.0052996142
0.005196848
0.0051031792
0.0050071589
0.0049202471
0.004830293
0.0047494987
0.0046650091
0.0045897795
0.0045102192
0.0044400742
0.004364966
0.0042994867
0.0042284035
0.0041672252
0.0040997798
0.0040425876
0.0039784252
0.0039249474
0.0038637459
0.0038137388
0.0037552168
0.0037084496
0.0036523696
0.0036086184
0.0035547818
0.0035138316
0.0034620693
0.0034237196
0.0033738779
0.0033379578
0.0032898753
0.0032562564
0.0032097683
0.0031783281
0.0031333193
0.0031038948
0.0030602933
0.0030327584
0.0029904127
0.002964748
0.0029235057
0.0028995693
0.0028594934
0.0028370617
0.0027979703
0.0027778454
0.0027391059
0.0027175065
0.0026750443
0.05477565
0.047087606
0.041212644
0.036587841
0.032858795
0.029792316
0.027228808
0.025055718
0.023191469
0.02157543
0.020161961
0.018915519
0.017808863
0.01681964
0.015930865
0.015127559
0.014398877
0.013734141
0.013126429
0.012567637
0.012053495
0.011577454
0.011137143
0.010726929
0.010345877
0.0099888596
0.0096560807
0.0093426457
0.0090497037
0.0087724018
0.0085127065
0.0082656709
0.0080339947
0.0078125323
0.0076046708
0.0074049749
0.00721751
0.0070364604
0.0068665937
0.0067016159
0.006547048
0.0063960114
0.0062548436
0.0061159794
0.0059866299
0.0058584631
0.0057395965
0.0056208899
0.0055113633
0.0054010707
0.0052998966
0.0051971239
0.0051034472
0.0050074201
0.0049205007
0.0048305401
0.0047497389
0.0046652434
0.0045900077
0.0045104419
0.0044402917
0.0043651787
0.0042996948
0.0042286072
0.0041674249
0.0040999755
0.0040427799
0.0039786138
0.0039251329
0.0038639282
0.0038139183
0.0037553934
0.0037086236
0.0036525409
0.0036087874
0.0035549482
0.003513996
0.0034622313
0.0034238796
0.0033740357
0.0033381138
0.0032900293
0.0032564087
0.0032099186
0.003178477
0.0031334661
0.0031040403
0.0030604369
0.0030329008
0.0029905533
0.0029648874
0.0029236433
0.0028997058
0.0028596282
0.0028371955
0.0027981025
0.0027779767
0.0027392356
0.0027176352
0.0026751714
0.054775649
0.047087603
0.041212635
0.036587828
0.032858772
0.029792284