/*--------------------------------*- C++ -*----------------------------------*\
| =========                 |                                                 |
| \\      /  F ield         | OpenFOAM: The Open Source CFD Toolbox           |
|  \\    /   O peration     | Version:  2406                                  |
|   \\  /    A nd           | Website:  www.openfoam.com                      |
|    \\/     M anipulation  |                                                 |
\*---------------------------------------------------------------------------*/
FoamFile
{
    version     2.0;
    format      ascii;
    arch        "LSB;label=32;scalar=64";
    class       volScalarField;
    location    "700";
    object      nut;
}
// * * * * * * * * * * * * * * * * * * * * * * * * * * * * * * * * * * * * * //

dimensions      [0 2 -1 0 0 0 0];

internalField   nonuniform List<scalar> 
16045
(
0.00014889141
0.00014712829
0.00014558639
0.00014422039
0.00014299474
0.00014188644
0.00014087383
0.00013994499
0.00013908474
0.00013828747
0.00013754117
0.00013684423
0.00013618614
0.00013556808
0.00013498016
0.00013442565
0.00013389482
0.00013339255
0.00013290899
0.00013245041
0.0001320066
0.00013158507
0.00013117511
0.00013078541
0.00013040458
0.00013004251
0.00012968699
0.00012934916
0.00012901577
0.00012869939
0.00012838551
0.00012808825
0.00012779166
0.00012751154
0.00012723044
0.0001269657
0.00012669856
0.00012644765
0.00012619334
0.00012595471
0.00012571232
0.00012548459
0.00012525344
0.00012503534
0.00012481476
0.00012460529
0.00012439462
0.00012419302
0.00012399137
0.00012379726
0.00012360374
0.0001234169
0.00012323048
0.00012305079
0.00012287069
0.00012269794
0.00012252347
0.00012235732
0.00012218813
0.00012202814
0.00012186397
0.00012170953
0.00012155034
0.00012140087
0.00012124675
0.00012110136
0.00012095271
0.00012081039
0.00012066788
0.00012052741
0.00012039159
0.00012025213
0.00012012326
0.00011998445
0.00011986211
0.00011972416
0.00011960761
0.00011947114
0.00011935935
0.00011922488
0.00011911727
0.00011898464
0.00011888161
0.00011874995
0.00011865161
0.00011852146
0.00011842606
0.00011829923
0.00011820583
0.00011808074
0.00011799229
0.00011786691
0.00011778122
0.00011766186
0.00011757294
0.00011745577
0.00011740028
0.00011726207
0.00011708118
0.00011708823
0.00014889141
0.00014712829
0.00014558639
0.00014422038
0.00014299473
0.00014188643
0.00014087382
0.00013994497
0.00013908472
0.00013828745
0.00013754114
0.0001368442
0.0001361861
0.00013556804
0.00013498012
0.00013442561
0.00013389478
0.0001333925
0.00013290895
0.00013245036
0.00013200655
0.00013158502
0.00013117506
0.00013078536
0.00013040453
0.00013004246
0.00012968694
0.00012934911
0.00012901572
0.00012869934
0.00012838547
0.00012808821
0.00012779163
0.00012751151
0.00012723041
0.00012696568
0.00012669854
0.00012644763
0.00012619332
0.00012595469
0.00012571231
0.00012548459
0.00012525344
0.00012503534
0.00012481477
0.0001246053
0.00012439463
0.00012419303
0.00012399139
0.00012379728
0.00012360376
0.00012341692
0.00012323051
0.00012305082
0.00012287072
0.00012269797
0.00012252351
0.00012235735
0.00012218817
0.00012202818
0.00012186401
0.00012170957
0.00012155039
0.00012140091
0.0001212468
0.00012110141
0.00012095276
0.00012081044
0.00012066793
0.00012052746
0.00012039164
0.00012025218
0.00012012331
0.0001199845
0.00011986216
0.00011972421
0.00011960767
0.00011947119
0.00011935941
0.00011922493
0.00011911733
0.0001189847
0.00011888166
0.00011875
0.00011865167
0.00011852152
0.00011842611
0.00011829929
0.00011820589
0.0001180808
0.00011799234
0.00011786696
0.00011778127
0.00011766192
0.00011757299
0.00011745582
0.00011740033
0.00011726213
0.00011708124
0.00011708828
0.00014889141
0.00014712829
0.00014558639
0.00014422038
0.00014299473
0.00014188643
0.00014087381
0.00013994496
0.00013908471
0.00013828744
0.00013754113
0.00013684419
0.00013618609
0.00013556803
0.00013498011
0.0001344256
0.00013389476
0.00013339249
0.00013290894
0.00013245035
0.00013200654
0.00013158501
0.00013117505
0.00013078534
0.00013040452
0.00013004245
0.00012968693
0.0001293491
0.00012901572
0.00012869934
0.00012838546
0.00012808821
0.00012779164
0.00012751152
0.00012723041
0.00012696569
0.00012669857
0.00012644764
0.00012619334
0.00012595472
0.00012571235
0.00012548462
0.00012525347
0.00012503539
0.00012481483
0.00012460534
0.00012439466
0.00012419308
0.00012399146
0.00012379734
0.0001236038
0.00012341697
0.00012323058
0.00012305088
0.00012287076
0.00012269802
0.00012252357
0.00012235743
0.00012218822
0.00012202822
0.00012186406
0.00012170965
0.00012155045
0.00012140095
0.00012124685
0.00012110148
0.00012095283
0.00012081049
0.00012066796
0.00012052751
0.00012039172
0.00012025224
0.00012012335
0.00011998454
0.00011986222
0.00011972428
0.00011960772
0.00011947123
0.00011935945
0.000119225
0.00011911739
0.00011898475
0.0001188817
0.00011875005
0.00011865173
0.00011852158
0.00011842616
0.00011829933
0.00011820594
0.00011808085
0.0001179924
0.00011786701
0.00011778132
0.00011766196
0.00011757304
0.00011745587
0.00011740038
0.00011726218
0.00011708129
0.00011708833
0.00014889141
0.00014712829
0.00014558639
0.00014422038
0.00014299473
0.00014188642
0.00014087381
0.00013994495
0.0001390847
0.00013828743
0.00013754112
0.00013684418
0.00013618608
0.00013556801
0.00013498009
0.00013442558
0.00013389474
0.00013339247
0.00013290891
0.00013245032
0.00013200651
0.00013158498
0.00013117503
0.00013078532
0.00013040449
0.00013004243
0.00012968691
0.00012934909
0.0001290157
0.00012869933
0.00012838547
0.00012808821
0.00012779163
0.00012751153
0.00012723043
0.00012696571
0.00012669858
0.00012644768
0.00012619338
0.00012595476
0.00012571238
0.00012548467
0.00012525354
0.00012503544
0.00012481488
0.00012460541
0.00012439475
0.00012419316
0.00012399152
0.00012379742
0.0001236039
0.00012341706
0.00012323065
0.00012305096
0.00012287087
0.00012269812
0.00012252366
0.00012235751
0.00012218832
0.00012202833
0.00012186416
0.00012170972
0.00012155054
0.00012140107
0.00012124696
0.00012110156
0.00012095292
0.0001208106
0.00012066808
0.00012052761
0.0001203918
0.00012025233
0.00012012347
0.00011998466
0.00011986232
0.00011972437
0.00011960782
0.00011947135
0.00011935956
0.00011922509
0.00011911748
0.00011898486
0.00011888182
0.00011875016
0.00011865182
0.00011852167
0.00011842627
0.00011829944
0.00011820604
0.00011808095
0.0001179925
0.00011786712
0.00011778143
0.00011766207
0.00011757315
0.00011745598
0.00011740049
0.00011726228
0.00011708139
0.00011708844
0.00014889141
0.00014712829
0.00014558639
0.00014422038
0.00014299472
0.00014188642
0.0001408738
0.00013994495
0.00013908469
0.00013828742
0.00013754111
0.00013684417
0.00013618607
0.000135568
0.00013498008
0.00013442556
0.00013389473
0.00013339245
0.00013290889
0.0001324503
0.0001320065
0.00013158496
0.00013117501
0.00013078531
0.00013040448
0.00013004242
0.0001296869
0.00012934908
0.00012901571
0.00012869934
0.00012838547
0.00012808822
0.00012779166
0.00012751155
0.00012723046
0.00012696575
0.00012669864
0.00012644773
0.00012619343
0.00012595483
0.00012571247
0.00012548475
0.00012525361
0.00012503553
0.00012481498
0.00012460551
0.00012439483
0.00012419326
0.00012399164
0.00012379753
0.000123604
0.00012341717
0.00012323078
0.00012305109
0.00012287097
0.00012269823
0.00012252379
0.00012235764
0.00012218844
0.00012202843
0.00012186428
0.00012170986
0.00012155067
0.00012140117
0.00012124706
0.0001211017
0.00012095305
0.00012081071
0.00012066818
0.00012052773
0.00012039194
0.00012025246
0.00012012357
0.00011998476
0.00011986244
0.0001197245
0.00011960794
0.00011947145
0.00011935967
0.00011922522
0.00011911761
0.00011898497
0.00011888192
0.00011875027
0.00011865195
0.0001185218
0.00011842638
0.00011829955
0.00011820616
0.00011808107
0.00011799262
0.00011786723
0.00011778154
0.00011766218
0.00011757326
0.00011745609
0.0001174006
0.00011726239
0.0001170815
0.00011708854
0.00014889141
0.00014712829
0.00014558639
0.00014422037
0.00014299472
0.00014188642
0.0001408738
0.00013994494
0.00013908469
0.00013828741
0.0001375411
0.00013684416
0.00013618605
0.00013556799
0.00013498006
0.00013442555
0.00013389471
0.00013339243
0.00013290888
0.00013245028
0.00013200648
0.00013158494
0.00013117499
0.00013078529
0.00013040447
0.00013004241
0.0001296869
0.00012934908
0.00012901571
0.00012869934
0.00012838549
0.00012808824
0.00012779168
0.00012751159
0.00012723051
0.0001269658
0.00012669869
0.0001264478
0.00012619352
0.00012595491
0.00012571255
0.00012548485
0.00012525372
0.00012503564
0.00012481508
0.00012460563
0.00012439497
0.00012419339
0.00012399176
0.00012379766
0.00012360415
0.00012341732
0.00012323091
0.00012305122
0.00012287113
0.00012269838
0.00012252392
0.00012235777
0.00012218859
0.0001220286
0.00012186443
0.00012170999
0.00012155081
0.00012140134
0.00012124723
0.00012110183
0.00012095319
0.00012081087
0.00012066835
0.00012052788
0.00012039207
0.0001202526
0.00012012373
0.00011998492
0.00011986259
0.00011972463
0.00011960809
0.00011947162
0.00011935983
0.00011922536
0.00011911775
0.00011898512
0.00011888209
0.00011875042
0.00011865209
0.00011852194
0.00011842653
0.00011829971
0.00011820631
0.00011808121
0.00011799276
0.00011786738
0.00011778169
0.00011766233
0.00011757341
0.00011745624
0.00011740075
0.00011726254
0.00011708166
0.0001170887
0.00014889141
0.00014712829
0.00014558639
0.00014422038
0.00014299472
0.00014188642
0.00014087379
0.00013994494
0.00013908468
0.00013828741
0.00013754108
0.00013684415
0.00013618603
0.00013556798
0.00013498004
0.00013442554
0.00013389467
0.00013339243
0.00013290884
0.00013245029
0.00013200644
0.00013158495
0.00013117496
0.0001307853
0.00013040443
0.00013004242
0.00012968687
0.0001293491
0.0001290157
0.00012869938
0.0001283855
0.00012808829
0.00012779171
0.00012751165
0.00012723055
0.00012696588
0.00012669876
0.00012644789
0.0001261936
0.00012595502
0.00012571265
0.00012548497
0.00012525384
0.00012503578
0.00012481521
0.00012460578
0.00012439511
0.00012419355
0.0001239919
0.00012379783
0.0001236043
0.00012341749
0.00012323106
0.0001230514
0.00012287129
0.00012269857
0.00012252409
0.00012235795
0.00012218876
0.00012202878
0.0001218646
0.00012171017
0.00012155098
0.00012140151
0.0001212474
0.00012110201
0.00012095336
0.00012081104
0.00012066852
0.00012052806
0.00012039223
0.00012025278
0.00012012389
0.0001199851
0.00011986275
0.00011972482
0.00011960825
0.0001194718
0.00011935999
0.00011922553
0.00011911791
0.0001189853
0.00011888225
0.0001187506
0.00011865225
0.00011852211
0.00011842669
0.00011829988
0.00011820647
0.00011808138
0.00011799292
0.00011786755
0.00011778185
0.0001176625
0.00011757357
0.0001174564
0.00011740091
0.00011726271
0.00011708183
0.00011708884
0.00014889137
0.00014712834
0.00014558632
0.00014422046
0.00014299462
0.00014188654
0.00014087364
0.00013994512
0.00013908446
0.00013828767
0.00013754076
0.00013684452
0.00013618558
0.00013556849
0.00013497941
0.00013442623
0.00013389385
0.00013339332
0.00013290781
0.00013245138
0.0001320052
0.00013158625
0.00013117353
0.00013078679
0.00013040284
0.00013004408
0.00012968515
0.00012935088
0.0001290139
0.00012870123
0.00012838369
0.00012809015
0.00012778995
0.00012751349
0.00012722886
0.00012696772
0.00012669707
0.00012644984
0.00012619176
0.00012595729
0.00012571039
0.00012548784
0.00012525088
0.00012503951
0.00012481133
0.00012461051
0.00012439027
0.00012419919
0.0001239863
0.00012380406
0.00012359835
0.00012342386
0.00012322521
0.00012305746
0.00012286592
0.00012270402
0.00012251942
0.00012236263
0.0001221849
0.00012203265
0.00012186153
0.00012171329
0.00012154858
0.00012140411
0.0001212453
0.00012110463
0.00012095079
0.00012081464
0.00012066446
0.00012053361
0.00012038588
0.0001202608
0.00012011511
0.00011999535
0.00011985207
0.00011973653
0.00011959658
0.00011948402
0.00011934824
0.00011923758
0.00011910634
0.0001189974
0.00011887029
0.00011876323
0.00011864014
0.00011853394
0.00011841652
0.00011830925
0.000118198
0.0001180908
0.00011798317
0.00011787718
0.00011777545
0.00011766457
0.00011757362
0.00011746215
0.0001173489
0.00011725828
0.00011731088
0.00011688496
0.00014889137
0.00014712834
0.00014558633
0.00014422045
0.00014299462
0.00014188653
0.00014087364
0.00013994511
0.00013908446
0.00013828765
0.00013754076
0.0001368445
0.00013618557
0.00013556847
0.0001349794
0.0001344262
0.00013389385
0.00013339328
0.0001329078
0.00013245134
0.0001320052
0.0001315862
0.00013117353
0.00013078675
0.00013040285
0.00013004405
0.00012968517
0.00012935087
0.00012901393
0.00012870123
0.00012838374
0.00012809018
0.00012779001
0.00012751355
0.00012722894
0.0001269678
0.00012669717
0.00012644995
0.00012619188
0.00012595742
0.00012571054
0.000125488
0.00012525104
0.00012503969
0.00012481151
0.00012461071
0.00012439046
0.0001241994
0.0001239865
0.00012380428
0.00012359855
0.00012342408
0.00012322542
0.00012305769
0.00012286613
0.00012270425
0.00012251964
0.00012236287
0.00012218512
0.00012203288
0.00012186175
0.00012171352
0.0001215488
0.00012140434
0.00012124552
0.00012110486
0.00012095101
0.00012081486
0.00012066468
0.00012053384
0.0001203861
0.00012026102
0.00012011533
0.00011999558
0.00011985229
0.00011973676
0.0001195968
0.00011948424
0.00011934846
0.0001192378
0.00011910656
0.00011899762
0.00011887051
0.00011876345
0.00011864036
0.00011853416
0.00011841674
0.00011830947
0.00011819822
0.00011809102
0.00011798338
0.0001178774
0.00011777566
0.00011766479
0.00011757383
0.00011746236
0.00011734911
0.00011725848
0.00011731111
0.00011688519
0.00014889141
0.00014712829
0.00014558639
0.00014422037
0.00014299472
0.0001418864
0.00014087378
0.00013994492
0.00013908466
0.00013828738
0.00013754106
0.00013684411
0.000136186
0.00013556792
0.00013497999
0.00013442547
0.00013389462
0.00013339234
0.00013290878
0.00013245019
0.00013200638
0.00013158486
0.00013117491
0.00013078522
0.00013040441
0.00013004237
0.00012968688
0.00012934909
0.00012901574
0.00012869942
0.0001283856
0.00012808839
0.00012779187
0.00012751183
0.00012723079
0.00012696613
0.00012669906
0.00012644823
0.00012619399
0.00012595543
0.0001257131
0.00012548546
0.00012525435
0.00012503633
0.00012481577
0.00012460637
0.00012439571
0.00012419418
0.00012399253
0.00012379849
0.00012360494
0.00012341817
0.00012323172
0.00012305209
0.00012287196
0.00012269926
0.00012252476
0.00012235864
0.00012218944
0.00012202947
0.00012186528
0.00012171086
0.00012155166
0.0001214022
0.00012124808
0.00012110269
0.00012095404
0.00012081172
0.0001206692
0.00012052874
0.00012039291
0.00012025346
0.00012012457
0.00011998578
0.00011986342
0.00011972549
0.00011960892
0.00011947247
0.00011936066
0.0001192262
0.00011911857
0.00011898596
0.00011888291
0.00011875126
0.00011865291
0.00011852277
0.00011842736
0.00011830054
0.00011820713
0.00011808204
0.00011799358
0.00011786821
0.00011778251
0.00011766315
0.00011757423
0.00011745705
0.00011740157
0.00011726336
0.00011708249
0.00011708951
0.00014889141
0.00014712829
0.00014558638
0.00014422037
0.00014299471
0.0001418864
0.00014087378
0.00013994492
0.00013908464
0.00013828737
0.00013754104
0.0001368441
0.00013618596
0.00013556791
0.00013497995
0.00013442546
0.00013389457
0.00013339234
0.00013290873
0.00013245018
0.00013200633
0.00013158485
0.00013117485
0.00013078522
0.00013040437
0.00013004238
0.00012968684
0.00012934911
0.00012901574
0.00012869946
0.00012838561
0.00012808846
0.00012779193
0.00012751191
0.00012723087
0.00012696625
0.0001266992
0.00012644837
0.00012619413
0.00012595561
0.0001257133
0.00012548565
0.00012525455
0.00012503654
0.00012481603
0.0001246066
0.00012439595
0.00012419442
0.00012399282
0.00012379874
0.00012360522
0.00012341842
0.00012323203
0.00012305236
0.00012287224
0.00012269951
0.00012252506
0.00012235893
0.00012218972
0.00012202972
0.00012186557
0.00012171115
0.00012155195
0.00012140246
0.00012124835
0.00012110298
0.00012095433
0.00012081199
0.00012066945
0.00012052901
0.0001203932
0.00012025373
0.00012012483
0.00011998603
0.0001198637
0.00011972577
0.00011960919
0.00011947272
0.00011936092
0.00011922648
0.00011911886
0.00011898622
0.00011888316
0.00011875152
0.00011865319
0.00011852305
0.00011842762
0.00011830079
0.00011820739
0.00011808231
0.00011799385
0.00011786847
0.00011778277
0.00011766341
0.00011757449
0.00011745732
0.00011740183
0.00011726363
0.00011708274
0.00011708975
0.00014889137
0.00014712834
0.00014558632
0.00014422045
0.00014299461
0.00014188653
0.00014087362
0.0001399451
0.00013908442
0.00013828762
0.00013754071
0.00013684446
0.0001361855
0.00013556841
0.00013497932
0.00013442613
0.00013389374
0.0001333932
0.00013290769
0.00013245126
0.00013200508
0.00013158613
0.00013117342
0.00013078669
0.00013040276
0.00013004401
0.00012968512
0.00012935087
0.00012901393
0.0001287013
0.00012838381
0.00012809033
0.00012779018
0.00012751378
0.00012722921
0.00012696813
0.00012669755
0.00012645037
0.00012619236
0.00012595794
0.00012571111
0.0001254886
0.0001252517
0.00012504036
0.00012481223
0.00012461143
0.00012439124
0.00012420016
0.00012398732
0.00012380506
0.00012359939
0.00012342489
0.00012322628
0.00012305851
0.000122867
0.00012270508
0.0001225205
0.0001223637
0.00012218598
0.00012203372
0.0001218626
0.00012171436
0.00012154965
0.00012140517
0.00012124636
0.00012110569
0.00012095185
0.00012081569
0.00012066552
0.00012053466
0.00012038693
0.00012026184
0.00012011616
0.00011999639
0.00011985312
0.00011973757
0.00011959763
0.00011948505
0.00011934928
0.00011923861
0.00011910738
0.00011899843
0.00011887132
0.00011876426
0.00011864117
0.00011853497
0.00011841755
0.00011831027
0.00011819903
0.00011809182
0.00011798419
0.0001178782
0.00011777647
0.00011766559
0.00011757464
0.00011746317
0.00011734992
0.0001172593
0.0001173119
0.00011688598
0.00014889137
0.00014712834
0.00014558632
0.00014422045
0.00014299461
0.00014188652
0.00014087362
0.00013994508
0.00013908442
0.0001382876
0.0001375407
0.00013684442
0.00013618549
0.00013556837
0.0001349793
0.00013442607
0.00013389373
0.00013339314
0.00013290767
0.00013245118
0.00013200506
0.00013158605
0.0001311734
0.00013078661
0.00013040275
0.00013004395
0.00012968512
0.00012935083
0.00012901395
0.00012870129
0.00012838386
0.00012809035
0.00012779026
0.00012751385
0.00012722932
0.00012696825
0.0001266977
0.00012645054
0.00012619255
0.00012595816
0.00012571133
0.00012548886
0.00012525194
0.00012504065
0.0001248125
0.00012461174
0.00012439152
0.0001242005
0.00012398761
0.00012380542
0.00012359969
0.00012342525
0.00012322659
0.00012305887
0.00012286731
0.00012270543
0.00012252082
0.00012236405
0.00012218629
0.00012203407
0.00012186293
0.0001217147
0.00012154997
0.00012140551
0.00012124668
0.00012110602
0.00012095217
0.00012081602
0.00012066583
0.000120535
0.00012038725
0.00012026217
0.00012011647
0.00011999672
0.00011985343
0.0001197379
0.00011959794
0.00011948538
0.00011934959
0.00011923894
0.00011910769
0.00011899875
0.00011887163
0.00011876458
0.00011864148
0.00011853529
0.00011841786
0.00011831059
0.00011819934
0.00011809214
0.0001179845
0.00011787852
0.00011777677
0.00011766591
0.00011757495
0.00011746348
0.00011735023
0.0001172596
0.00011731222
0.00011688631
0.00014889141
0.00014712829
0.00014558638
0.00014422037
0.0001429947
0.00014188639
0.00014087375
0.0001399449
0.00013908461
0.00013828733
0.00013754098
0.00013684404
0.00013618588
0.00013556784
0.00013497984
0.00013442536
0.00013389444
0.00013339222
0.00013290858
0.00013245006
0.00013200617
0.00013158473
0.0001311747
0.00013078511
0.00013040423
0.00013004231
0.00012968675
0.00012934909
0.00012901571
0.00012869951
0.00012838567
0.0001280886
0.0001277921
0.00012751218
0.00012723116
0.00012696664
0.00012669963
0.00012644889
0.00012619469
0.00012595625
0.00012571397
0.0001254864
0.00012525532
0.00012503739
0.00012481686
0.00012460753
0.00012439684
0.0001241954
0.00012399374
0.00012379976
0.00012360617
0.00012341946
0.000123233
0.0001230534
0.00012287322
0.00012270055
0.00012252606
0.00012235996
0.00012219072
0.00012203075
0.00012186657
0.00012171217
0.00012155295
0.00012140346
0.00012124934
0.00012110398
0.00012095532
0.00012081298
0.00012067043
0.00012053
0.00012039417
0.00012025473
0.00012012579
0.00011998703
0.00011986466
0.00011972676
0.00011961015
0.0001194737
0.00011936187
0.00011922746
0.00011911981
0.0001189872
0.00011888412
0.00011875249
0.00011865414
0.00011852401
0.00011842857
0.00011830175
0.00011820835
0.00011808327
0.00011799481
0.00011786942
0.00011778373
0.00011766437
0.00011757546
0.00011745827
0.00011740278
0.00011726458
0.00011708372
0.00011709072
0.00014889137
0.00014712834
0.00014558632
0.00014422045
0.00014299461
0.00014188651
0.00014087361
0.00013994506
0.00013908439
0.00013828757
0.00013754066
0.00013684437
0.00013618543
0.0001355683
0.00013497923
0.00013442598
0.00013389363
0.00013339303
0.00013290756
0.00013245106
0.00013200495
0.00013158592
0.00013117329
0.00013078649
0.00013040266
0.00013004385
0.00012968506
0.00012935077
0.00012901395
0.00012870128
0.00012838391
0.00012809043
0.00012779041
0.00012751401
0.00012722956
0.00012696851
0.00012669805
0.0001264509
0.00012619299
0.00012595862
0.00012571189
0.00012548939
0.00012525256
0.00012504125
0.00012481321
0.00012461238
0.00012439226
0.00012420116
0.00012398842
0.00012380611
0.00012360049
0.00012342594
0.00012322741
0.00012305959
0.0001228681
0.00012270614
0.00012252163
0.0001223648
0.00012218708
0.00012203478
0.0001218637
0.00012171546
0.00012155075
0.00012140623
0.00012124743
0.00012110677
0.00012095295
0.00012081674
0.00012066657
0.00012053571
0.00012038802
0.00012026289
0.00012011722
0.00011999741
0.00011985419
0.00011973861
0.00011959869
0.00011948606
0.00011935033
0.00011923965
0.00011910844
0.00011899945
0.00011887235
0.00011876527
0.00011864223
0.00011853599
0.00011841858
0.00011831128
0.00011820006
0.00011809284
0.00011798523
0.00011787921
0.00011777748
0.00011766661
0.00011757567
0.00011746418
0.00011735095
0.0001172603
0.00011731291
0.00011688702
0.00014889141
0.00014712829
0.00014558638
0.00014422036
0.0001429947
0.00014188638
0.00014087374
0.00013994487
0.00013908459
0.00013828728
0.00013754094
0.00013684397
0.00013618583
0.00013556773
0.00013497978
0.00013442523
0.00013389436
0.00013339206
0.00013290848
0.00013244988
0.00013200607
0.00013158454
0.00013117459
0.00013078492
0.00013040413
0.00013004214
0.00012968667
0.00012934896
0.00012901568
0.00012869945
0.0001283857
0.00012808864
0.00012779223
0.00012751232
0.0001272314
0.00012696691
0.00012669998
0.00012644929
0.00012619515
0.00012595677
0.00012571453
0.00012548702
0.00012525597
0.00012503809
0.00012481758
0.00012460829
0.0001243976
0.0001241962
0.00012399454
0.00012380058
0.00012360698
0.00012342028
0.00012323382
0.00012305423
0.00012287404
0.00012270138
0.00012252687
0.00012236078
0.00012219153
0.00012203156
0.00012186737
0.00012171297
0.00012155374
0.00012140426
0.00012125013
0.00012110477
0.0001209561
0.00012081377
0.00012067121
0.00012053078
0.00012039495
0.0001202555
0.00012012656
0.00011998779
0.00011986543
0.00011972752
0.00011961091
0.00011947446
0.00011936264
0.00011922821
0.00011912057
0.00011898795
0.00011888487
0.00011875324
0.0001186549
0.00011852476
0.00011842932
0.00011830249
0.00011820909
0.00011808401
0.00011799555
0.00011787016
0.00011778446
0.0001176651
0.00011757619
0.000117459
0.00011740351
0.0001172653
0.00011708444
0.00011709146
0.00014889141
0.00014712829
0.00014558638
0.00014422036
0.00014299469
0.00014188638
0.00014087373
0.00013994486
0.00013908456
0.00013828727
0.0001375409
0.00013684395
0.00013618578
0.00013556771
0.0001349797
0.0001344252
0.00013389426
0.00013339202
0.00013290837
0.00013244983
0.00013200593
0.00013158448
0.00013117445
0.00013078486
0.00013040399
0.00013004208
0.00012968656
0.00012934892
0.00012901559
0.00012869943
0.00012838569
0.00012808866
0.00012779226
0.0001275124
0.00012723152
0.00012696705
0.00012670016
0.00012644949
0.00012619544
0.00012595703
0.00012571487
0.00012548734
0.00012525639
0.00012503844
0.00012481802
0.00012460866
0.00012439811
0.00012419659
0.00012399504
0.00012380097
0.00012360751
0.0001234207
0.00012323432
0.00012305464
0.00012287456
0.00012270181
0.00012252736
0.0001223612
0.00012219202
0.00012203201
0.00012186784
0.00012171339
0.0001215542
0.00012140471
0.0001212506
0.00012110519
0.00012095654
0.00012081421
0.00012067168
0.00012053121
0.00012039538
0.00012025591
0.00012012703
0.00011998822
0.00011986587
0.00011972792
0.00011961136
0.00011947489
0.00011936309
0.00011922862
0.000119121
0.00011898837
0.00011888532
0.00011875366
0.00011865532
0.00011852517
0.00011842975
0.00011830293
0.00011820952
0.00011808443
0.00011799597
0.00011787059
0.00011778489
0.00011766553
0.00011757661
0.00011745943
0.00011740394
0.00011726574
0.00011708485
0.00011709186
0.00014889137
0.00014712834
0.00014558632
0.00014422044
0.00014299459
0.00014188649
0.00014087358
0.00013994502
0.00013908434
0.0001382875
0.00013754058
0.00013684427
0.00013618531
0.00013556815
0.00013497907
0.00013442579
0.00013389343
0.00013339279
0.00013290732
0.00013245078
0.00013200468
0.00013158561
0.000131173
0.00013078617
0.00013040237
0.00013004355
0.00012968482
0.00012935054
0.00012901378
0.00012870116
0.00012838388
0.00012809045
0.00012779054
0.00012751423
0.0001272299
0.00012696895
0.0001266986
0.00012645157
0.00012619377
0.00012595949
0.00012571284
0.00012549044
0.0001252537
0.00012504243
0.00012481445
0.00012461367
0.0001243936
0.00012420251
0.00012398978
0.00012380749
0.0001236019
0.00012342735
0.00012322881
0.00012306099
0.00012286952
0.00012270756
0.00012252302
0.00012236618
0.00012218847
0.00012203619
0.00012186508
0.00012171681
0.00012155211
0.00012140761
0.0001212488
0.00012110811
0.00012095428
0.0001208181
0.00012066793
0.00012053705
0.00012038934
0.00012026421
0.00012011856
0.00011999874
0.00011985551
0.00011973991
0.00011960001
0.00011948739
0.00011935165
0.00011924094
0.00011910974
0.00011900075
0.00011887367
0.00011876657
0.00011864351
0.00011853728
0.00011841988
0.00011831258
0.00011820135
0.00011809412
0.00011798651
0.0001178805
0.00011777878
0.00011766789
0.00011757694
0.00011746546
0.00011735223
0.00011726157
0.00011731419
0.00011688829
0.00014889141
0.00014712829
0.00014558637
0.00014422036
0.00014299468
0.00014188636
0.0001408737
0.00013994483
0.00013908452
0.00013828722
0.00013754083
0.00013684387
0.00013618567
0.0001355676
0.00013497956
0.00013442505
0.00013389408
0.00013339184
0.00013290815
0.00013244962
0.00013200568
0.00013158425
0.00013117417
0.00013078462
0.00013040371
0.00013004185
0.0001296863
0.00012934874
0.0001290154
0.00012869933
0.00012838557
0.00012808868
0.0001277923
0.00012751257
0.00012723171
0.0001269674
0.00012670056
0.00012645002
0.00012619599
0.00012595774
0.00012571559
0.00012548819
0.0001252572
0.00012503942
0.00012481893
0.00012460972
0.00012439904
0.0001241977
0.00012399602
0.00012380212
0.00012360848
0.00012342183
0.00012323533
0.00012305578
0.00012287556
0.00012270291
0.00012252838
0.0001223623
0.00012219303
0.00012203306
0.00012186886
0.00012171446
0.00012155522
0.00012140574
0.0001212516
0.00012110623
0.00012095756
0.00012081522
0.00012067266
0.00012053223
0.00012039638
0.00012025695
0.00012012799
0.00011998923
0.00011986684
0.00011972896
0.00011961233
0.00011947589
0.00011936404
0.00011922963
0.00011912197
0.00011898937
0.00011888627
0.00011875465
0.00011865629
0.00011852616
0.00011843071
0.00011830389
0.00011821048
0.0001180854
0.00011799693
0.00011787154
0.00011778585
0.00011766648
0.00011757757
0.00011746038
0.00011740489
0.00011726668
0.00011708583
0.00011709282
0.00014889137
0.00014712834
0.00014558631
0.00014422043
0.00014299458
0.00014188647
0.00014087355
0.00013994498
0.00013908429
0.00013828744
0.0001375405
0.00013684418
0.0001361852
0.00013556802
0.00013497891
0.00013442563
0.00013389323
0.00013339258
0.00013290708
0.00013245053
0.00013200439
0.00013158533
0.00013117269
0.00013078587
0.00013040205
0.00013004325
0.00012968452
0.00012935027
0.00012901355
0.00012870097
0.00012838377
0.0001280904
0.00012779058
0.00012751436
0.00012723015
0.00012696928
0.00012669906
0.00012645212
0.00012619443
0.00012596023
0.00012571369
0.00012549134
0.00012525469
0.00012504344
0.00012481554
0.00012461474
0.00012439475
0.00012420363
0.00012399096
0.00012380863
0.00012360309
0.0001234285
0.00012322999
0.00012306214
0.00012287069
0.00012270869
0.00012252417
0.00012236731
0.00012218961
0.0001220373
0.00012186621
0.00012171792
0.00012155322
0.0001214087
0.0001212499
0.0001211092
0.00012095537
0.00012081918
0.00012066902
0.00012053812
0.00012039042
0.00012026528
0.00012011964
0.0001199998
0.00011985658
0.00011974097
0.00011960108
0.00011948844
0.00011935271
0.00011924199
0.00011911079
0.00011900179
0.00011887472
0.00011876761
0.00011864456
0.00011853831
0.00011842092
0.0001183136
0.00011820238
0.00011809515
0.00011798753
0.00011788152
0.0001177798
0.0001176689
0.00011757796
0.00011746647
0.00011735324
0.00011726258
0.00011731519
0.0001168893
0.00014889141
0.00014712828
0.00014558637
0.00014422035
0.00014299467
0.00014188634
0.00014087368
0.00013994478
0.00013908448
0.00013828714
0.00013754077
0.00013684375
0.00013618557
0.00013556743
0.00013497942
0.00013442483
0.00013389391
0.00013339156
0.00013290792
0.00013244928
0.00013200541
0.00013158386
0.00013117387
0.00013078419
0.00013040339
0.00013004142
0.00012968598
0.00012934835
0.00012901514
0.00012869904
0.00012838542
0.00012808855
0.00012779231
0.00012751265
0.00012723194
0.00012696773
0.00012670103
0.00012645061
0.00012619671
0.00012595856
0.00012571651
0.00012548921
0.00012525828
0.00012504057
0.00012482011
0.00012461096
0.00012440028
0.00012419899
0.00012399729
0.00012380341
0.00012360976
0.00012342313
0.00012323661
0.00012305706
0.00012287682
0.00012270418
0.00012252963
0.00012236355
0.00012219426
0.0001220343
0.00012187008
0.00012171568
0.00012155643
0.00012140694
0.0001212528
0.00012110742
0.00012095875
0.00012081641
0.00012067384
0.00012053341
0.00012039756
0.00012025811
0.00012012916
0.00011999039
0.00011986801
0.00011973011
0.00011961349
0.00011947703
0.0001193652
0.00011923077
0.00011912312
0.0001189905
0.00011888741
0.00011875578
0.00011865742
0.00011852728
0.00011843183
0.000118305
0.0001182116
0.00011808651
0.00011799805
0.00011787265
0.00011778696
0.00011766759