/*--------------------------------*- C++ -*----------------------------------*\
| =========                 |                                                 |
| \\      /  F ield         | OpenFOAM: The Open Source CFD Toolbox           |
|  \\    /   O peration     | Version:  2406                                  |
|   \\  /    A nd           | Website:  www.openfoam.com                      |
|    \\/     M anipulation  |                                                 |
\*---------------------------------------------------------------------------*/
FoamFile
{
    version     2.0;
    format      ascii;
    arch        "LSB;label=32;scalar=64";
    class       volScalarField;
    location    "700";
    object      omega;
}
// * * * * * * * * * * * * * * * * * * * * * * * * * * * * * * * * * * * * * //

dimensions      [0 0 -1 0 0 0 0];

internalField   nonuniform List<scalar> 
16045
(
367.89
320.04481
283.08095
253.69507
229.79194
209.97536
193.28824
179.04378
166.74834
156.02449
146.59529
138.23431
130.77714
124.07737
118.03415
112.546
107.55072
102.97305
98.775836
94.899405
91.32393
87.9989
84.917194
82.033448
79.350433
76.825245
74.468791
72.238815
70.15325
68.169147
66.310791
64.533581
62.867719
61.26617
59.764838
58.313662
56.954118
55.632587
54.396119
53.18712
52.058226
50.947465
49.913165
48.888649
47.938031
46.989582
46.113368
45.232333
44.422631
43.601566
42.851571
42.08407
41.387943
40.668435
40.021076
39.344709
38.741708
38.104232
37.541695
36.939357
36.413895
35.843396
35.351991
34.810376
34.350376
33.835043
33.404083
32.912674
32.508644
32.03907
31.660101
31.210459
30.854851
30.423436
30.089692
29.674958
29.361703
28.962235
28.668248
28.282776
28.006944
27.634286
27.375602
27.014696
26.772252
26.42211
26.19507
25.854787
25.642403
25.311149
25.11273
24.789728
24.604647
24.289188
24.116873
23.808292
23.648216
23.345899
23.197584
22.833733
367.89
320.04477
283.08086
253.69493
229.79176
209.97514
193.28799
179.04349
166.74803
156.02416
146.59493
138.23394
130.77676
124.07697
118.03374
112.54559
107.5503
102.97262
98.775406
94.898973
91.3235
87.998472
84.916771
82.03303
79.350023
76.824843
74.468401
72.238437
70.152886
68.168799
66.310461
64.533268
62.867425
61.265895
59.764584
58.313428
56.953904
55.632395
54.395947
53.186968
52.058093
50.947351
49.91307
48.88857
47.937968
46.989535
46.113335
45.232313
44.422622
43.601568
42.851583
42.084091
41.387971
40.668471
40.021118
39.344757
38.74176
38.104288
37.541755
36.93942
36.413961
35.843464
35.352061
34.810448
34.350449
33.835117
33.404158
32.912749
32.508721
32.039147
31.660178
31.210536
30.854928
30.423514
30.089769
29.675035
29.361779
28.962311
28.668324
28.282852
28.00702
27.634362
27.375677
27.01477
26.772326
26.422184
26.195144
25.85486
25.642476
25.311221
25.112802
24.7898
24.604718
24.289259
24.116943
23.808362
23.648286
23.345968
23.197653
22.833801
367.89
320.04476
283.08084
253.6949
229.79171
209.97508
193.28792
179.04342
166.74795
156.02408
146.59485
138.23386
130.77667
124.07688
118.03365
112.54549
107.55021
102.97253
98.775321
94.898894
91.323424
87.998402
84.916713
82.032981
79.349981
76.824816
74.46839
72.238438
70.152899
68.168831
66.310512
64.533333
62.867504
61.265996
59.764704
58.31356
56.954051
55.632561
54.39613
53.187159
52.058294
50.947568
49.913299
48.888802
47.938203
46.98978
46.113589
45.232565
44.422871
43.601823
42.851844
42.084349
41.388221
40.668721
40.021372
39.345008
38.742002
38.104525
37.541996
36.939661
36.414193
35.843687
35.352285
34.810674
34.35067
33.835329
33.404366
32.912959
32.508931
32.039349
31.660372
31.21073
30.855126
30.423708
30.089956
29.675216
29.361962
28.962495
28.668505
28.283025
28.007191
27.634534
27.37585
27.014939
26.77249
26.422346
26.195307
25.855023
25.642636
25.311377
25.112956
24.789954
24.604872
24.289409
24.117092
23.808509
23.648432
23.346113
23.197797
22.833943
367.89
320.04475
283.08082
253.69487
229.79166
209.97501
193.28783
179.04331
166.74783
156.02394
146.59469
138.23368
130.77648
124.07668
118.03344
112.54528
107.54999
102.97231
98.775093
94.898665
91.3232
87.998181
84.916495
82.032772
79.349787
76.824633
74.46822
72.238287
70.15277
68.168719
66.310419
64.533266
62.867464
61.265975
59.764706
58.313591
56.954107
55.632635
54.396224
53.18728
52.058437
50.947724
49.913468
48.888993
47.938411
46.989995
46.113809
45.2328
44.423119
43.602073
42.852093
42.084605
41.388488
40.668988
40.021634
39.345271
38.742273
38.104797
37.542261
36.939921
36.414458
35.843956
35.352548
34.810929
34.350925
33.835588
33.404624
32.913209
32.509175
32.039596
31.660622
31.210974
30.855362
30.423942
30.090194
29.675454
29.362194
28.962721
28.66873
28.283253
28.007418
27.634754
27.376066
27.015155
26.772708
26.422561
26.195518
25.85523
25.642843
25.311584
25.113162
24.790156
24.605072
24.289608
24.11729
23.808706
23.648627
23.346306
23.197988
22.834132
367.89
320.04475
283.08081
253.69484
229.79163
209.97496
193.28776
179.04324
166.74774
156.02384
146.59458
138.23356
130.77636
124.07655
118.0333
112.54514
107.54985
102.97217
98.774958
94.898535
91.323076
87.998069
84.916398
82.032689
79.349719
76.824586
74.468198
72.238286
70.152792
68.168772
66.310503
64.533375
62.867601
61.266147
59.764909
58.313818
56.954361
55.632921
54.396537
53.187611
52.058786
50.948097
49.913862
48.889395
47.938822
46.990421
46.114248
45.23324
44.423558
43.602518
42.852545
42.085054
41.388928
40.669428
40.022078
39.345711
38.742701
38.105219
37.542684
36.940343
36.414868
35.844355
35.352945
34.811327
34.351316
33.835966
33.404996
32.913582
32.509546
32.039956
31.660973
31.211322
30.855712
30.424286
30.090528
29.675781
29.362522
28.963047
28.669051
28.283565
28.007726
27.635062
27.376373
27.015456
26.773003
26.422852
26.195809
25.855519
25.643128
25.311863
25.11344
24.790431
24.605346
24.289878
24.117557
23.808969
23.64889
23.346565
23.198246
22.834386
367.89
320.04475
283.0808
253.69482
229.79159
209.97491
193.2877
179.04316
166.74765
156.02373
146.59446
138.23343
130.77621
124.0764
118.03314
112.54497
107.54967
102.97199
98.77478
94.89836
91.32291
87.997911
84.916249
82.032556
79.349607
76.824493
74.468125
72.238241
70.152779
68.168785
66.310546
64.533456
62.867718
61.266293
59.765088
58.314035
56.954613
55.633199
54.396842
53.187949
52.059152
50.94848
49.914261
48.889817
47.939262
46.990868
46.1147
45.233704
44.424033
43.602993
42.853016
42.085528
41.389409
40.669905
40.022546
39.346176
38.74317
38.105685
37.543139
36.940789
36.415315
35.844801
35.353383
34.811753
34.351739
33.83639
33.405416
32.913989
32.509946
32.040356
31.661373
31.211715
30.856094
30.424664
30.090908
29.676158
29.362891
28.963408
28.669411
28.283924
28.008083
27.635411
27.376716
27.015797
26.773345
26.42319
26.196142
25.855846
25.643454
25.312188
25.113762
24.790748
24.60566
24.290189
24.117867
23.809276
23.649194
23.346866
23.198545
22.834681
367.89
320.04474
283.08079
253.6948
229.79156
209.97487
193.28764
179.04309
166.74756
156.02362
146.59434
138.2333
130.77607
124.07624
118.03298
112.5448
107.5495
102.97182
98.774615
94.8982
91.322759
87.997772
84.916127
82.032453
79.349527
76.824439
74.468101
72.23825
70.152824
68.168867
66.310668
64.533618
62.867923
61.26654
59.765376
58.314365
56.954982
55.633605
54.397284
53.188422
52.059655
50.949009
49.914813
48.890388
47.93985
46.991469
46.115311
45.234323
44.424656
43.603619
42.853643
42.086154
41.390032
40.670524
40.02316
39.346784
38.743772
38.10628
37.543727
36.941369
36.415888
35.845366
35.35394
34.812301
34.35228
33.836923
33.405942
32.914507
32.510457
32.040859
31.66187
31.212204
30.856578
30.42514
30.091378
29.676622
29.363349
28.96386
28.669858
28.284365
28.008519
27.635841
27.377143
27.016218
26.773762
26.423601
26.196549
25.856249
25.643854
25.312582
25.114153
24.791134
24.606043
24.290568
24.118243
23.809647
23.649563
23.34723
23.198907
22.835037
367.89
320.04474
283.08078
253.69478
229.79152
209.97482
193.28758
179.04301
166.74746
156.02351
146.59421
138.23316
130.77591
124.07608
118.0328
112.54462
107.54931
102.97163
98.774426
94.898016
91.322584
87.997608
84.91598
82.032326
79.349426
76.824365
74.46806
72.238245
70.152858
68.168944
66.310789
64.533785
62.868137
61.266802
59.765686
58.314721
56.955383
55.634048
54.397766
53.188941
52.060207
50.94959
49.915419
48.891016
47.940495
46.992128
46.115981
45.235
44.425338
43.604303
42.854327
42.086836
41.390711
40.671198
40.023828
39.347445
38.744426
38.106925
37.544365
36.941997
36.416508
35.845977
35.354544
34.812895
34.352866
33.8375
33.406512
32.915068
32.511012
32.041405
31.66241
31.212736
30.857103
30.425658
30.091891
29.677127
29.363849
28.964353
28.670346
28.284847
28.008997
27.636313
27.37761
27.016679
26.774219
26.424053
26.196997
25.856691
25.644293
25.313016
25.114583
24.79156
24.606466
24.290985
24.118658
23.810057
23.64997
23.347632
23.199307
22.835432
367.89
320.04474
283.08076
253.69475
229.79149
209.97477
193.28752
179.04292
166.74736
156.02339
146.59408
138.233
130.77574
124.07589
118.03261
112.54442
107.54911
102.97142
98.774217
94.897813
91.32239
87.997429
84.91582
82.032188
79.349316
76.824288
74.468021
72.238247
70.152907
68.169041
66.310939
64.533989
62.868397
61.267117
59.766057
58.315146
56.955861
55.634576
54.398341
53.189558
52.060862
50.950279
49.916137
48.891759
47.941258
46.992907
46.116772
45.235799
44.426142
43.605109
42.855132
42.087638
41.391509
40.671989
40.024613
39.348221
38.745193
38.107682
37.545112
36.942734
36.417235
35.846693
35.355249
34.81359
34.353552
33.838175
33.407177
32.915724
32.511658
32.042042
31.663038
31.213355
30.857715
30.426261
30.092486
29.677714
29.36443
28.964926
28.670913
28.285406
28.00955
27.636858
27.378151
27.017212
26.774748
26.424574
26.197515
25.857202
25.644799
25.313516
25.11508
24.79205
24.606952
24.291466
24.119135
23.810528
23.650438
23.348095
23.199766
22.835884
367.89
320.04473
283.08075
253.69473
229.79145
209.97472
193.28744
179.04283
166.74725
156.02326
146.59392
138.23283
130.77555
124.07569
118.03239
112.54419
107.54887
102.97118
98.773977
94.897577
91.322164
87.997216
84.915626
82.032019
79.349178
76.824185
74.46796
72.238232
70.152943
68.169132
66.311089
64.534199
62.86867
61.267454
59.766457
58.315608
56.956382
55.635154
54.398971
53.190237
52.061583
50.951039
49.916929
48.892578
47.942098
46.993764
46.117641
45.236676
44.427023
43.605991
42.856013
42.088514
41.392379
40.672851
40.025466
39.349064
38.746025
38.108503
37.545921
36.943531
36.41802
35.847465
35.356011
34.814339
34.35429
33.838901
33.407894
32.916429
32.512354
32.042726
31.663714
31.214021
30.858373
30.426909
30.093127
29.678345
29.365055
28.965541
28.671522
28.286007
28.010145
27.637445
27.378732
27.017787
26.775317
26.425136
26.198072
25.857752
25.645345
25.314055
25.115615
24.792578
24.607477
24.291984
24.11965
23.811037
23.650944
23.348594
23.200263
22.836373
367.89
320.04472
283.08073
253.69471
229.79142
209.97466
193.28737
179.04273
166.74712
156.02311
146.59375
138.23264
130.77534
124.07546
118.03214
112.54393
107.5486
102.9709
98.7737
94.897302
91.321895
87.996961
84.915396
82.031814
79.349002
76.82405
74.467874
72.238194
70.15296
68.169214
66.31124
64.534416
62.868957
61.267817
59.766896
58.316113
56.956954
55.635796
54.399676
53.190992
52.062385
50.951889
49.917819
48.893493
47.943034
46.994724
46.118619
45.237658
44.428004
43.606976
42.857002
42.089495
41.393346
40.673811
40.026422
39.350008
38.74695
38.109412
37.546825
36.944424
36.418895
35.848321
35.356858
34.815179
34.355116
33.839707
33.408687
32.917216
32.513134
32.043489
31.664462
31.21476
30.859109
30.427634
30.093838
29.679044
29.36575
28.966231
28.672202
28.286673
28.010804
27.638099
27.379383
27.018426
26.775947
26.425759
26.198692
25.858365
25.645952
25.314652
25.116208
24.793166
24.608061
24.29256
24.120221
23.811601
23.651505
23.349148
23.200814
22.836916
367.89
320.04472
283.08073
253.69469
229.79137
209.9746
193.28728
179.04262
166.74698
156.02295
146.59356
138.23242
130.7751
124.07519
118.03186
112.54362
107.54829
102.97058
98.773371
94.896974
91.321578
87.996656
84.915108
82.031554
79.348781
76.823868
74.467738
72.238117
70.15295
68.169269
66.311367
64.534625
62.86925
61.268188
59.767348
58.316651
56.957572
55.636484
54.40043
53.191814
52.063265
50.952812
49.91878
48.894493
47.944065
46.99577
46.119674
45.238726
44.429081
43.608049
42.858064
42.090554
41.394402
40.674853
40.027445
39.351017
38.747952
38.110401
37.547792
36.945372
36.419834
35.849249
35.357768
34.816068
34.355993
33.840576
33.409545
32.918053
32.513956
32.044304
31.665271
31.215553
30.859886
30.4284
30.0946
29.679797
29.36649
28.966957
28.672923
28.287388
28.011512
27.638794
27.380069
27.019105
26.776624
26.426426
26.199351
25.859014
25.646598
25.315292
25.116842
24.79379
24.60868
24.293172
24.120831
23.812203
23.652102
23.349738
23.2014
22.837493
367.88998
320.04471
283.08071
253.69465
229.79132
209.97452
193.28717
179.04249
166.74683
156.02276
146.59334
138.23217
130.77482
124.07489
118.03153
112.54328
107.54792
102.9702
98.772987
94.896587
91.321196
87.996285
84.914758
82.03123
79.348493
76.823624
74.467549
72.237988
70.15289
68.169286
66.311468
64.534814
62.869531
61.268563
59.767817
58.317213
56.958224
55.63722
54.401245
53.192701
52.064215
50.953817
49.919831
48.895583
47.945183
46.99691
46.120829
45.239891
44.430249
43.609215
42.859226
42.091706
41.395544
40.675983
40.028561
39.352116
38.749036
38.111467
37.548843
36.946405
36.420851
35.850248
35.358752
34.817035
34.356946
33.841512
33.410468
32.918961
32.514852
32.045185
31.66614
31.216409
30.860732
30.429232
30.095423
29.680608
29.367292
28.967747
28.673705
28.288159
28.012276
27.639547
27.380815
27.019841
26.777353
26.427146
26.200065
25.859719
25.647297
25.315982
25.117527
24.794467
24.609352
24.293836
24.12149
23.812854
23.652749
23.350377
23.202035
22.838119
367.88998
320.04469
283.08069
253.69461
229.79126
209.97444
193.28706
179.04234
166.74665
156.02254
146.5931
138.23189
130.77451
124.07454
118.03116
112.54288
107.5475
102.96976
98.772536
94.89613
91.320737
87.995836
84.91433
82.030826
79.348123
76.823303
74.467287
72.23779
70.152766
68.169248
66.311526
64.534967
62.869785
61.268928
59.768292
58.317788
56.958899
55.637998
54.402114
53.193646
52.065229
50.954899
49.920967
48.896756
47.946384
46.998141
46.122079
45.241144
44.4315
43.610468
42.860478
42.092944
41.396763
40.677187
40.029757
39.353294
38.750189
38.112599
37.549963
36.947508
36.421931
35.851305
35.359795
34.818065
34.357959
33.842502
33.411441
32.919924
32.515805
32.046117
31.667056
31.217313
30.861629
30.430116
30.096291
29.68146
29.368139
28.968586
28.674532
28.288971
28.013079
27.640343
27.381606
27.020619
26.778121
26.427904
26.200819
25.860465
25.648035
25.316709
25.118249
24.795181
24.610062
24.294536
24.122184
23.813539
23.65343
23.35105
23.202704
22.838778
367.88998
320.04469
283.08067
253.69458
229.7912
209.97434
193.28694
179.04218
166.74645
156.0223
146.59282
138.23157
130.77415
124.07415
118.03073
112.54241
107.54701
102.96925
98.772006
94.895588
91.320193
87.995296
84.913805
82.030326
79.34766
76.822886
74.46693
72.237502
70.152562
68.169137
66.311519
64.535069
62.870005
61.269268
59.768754
58.318371
56.959598
55.638808
54.403026
53.194651
52.066315
50.956055
49.922181
48.898017
47.94768
46.999462
46.123417
45.24249
44.432848
43.611811
42.861812
42.094267
41.39807
40.678477
40.031028
39.354545
38.75142
38.113808
37.551152
36.948676
36.42308
35.852433
35.360905
34.819155
34.359031
33.843556
33.41248
32.920945
32.516811
32.047107
31.668032
31.218274
30.862578
30.43105
30.097214
29.68237
29.369038
28.969472
28.675409
28.289835
28.013935
27.641188
27.382442
27.021444
26.778939
26.428711
26.20162
25.861255
25.648819
25.317483
25.119017
24.79594
24.610815
24.29528
24.122922
23.814269
23.654155
23.351766
23.203416
22.839479
367.88998
320.04468
283.08064
253.69453
229.79113
209.97424
193.2868
179.042
166.74623
156.02204
146.5925
138.23121
130.77375
124.0737
118.03024
112.54188
107.54644
102.96865
98.771385
94.89495
91.319547
87.994649
84.91317
82.029712
79.347081
76.822352
74.466459
72.237106
70.152256
68.168932
66.311427
64.535101
62.870168
61.269568
59.769193
58.318948
56.960308
55.639645
54.40398
53.195711
52.067466
50.957286
49.923475
48.899362
47.949064
47.000874
46.124844
45.243926
44.434284
43.613241
42.863232
42.095671
41.399457
40.679843
40.032373
39.355867
38.75272
38.115084
37.552406
36.949906
36.424289
35.853619
35.362071
34.8203
34.360158
33.844662
33.413569
32.922016
32.517866
32.048144
31.669055
31.219281
30.863572
30.432028
30.09818
29.683322
29.369979
28.970399
28.676327
28.29074
28.01483
27.64207
27.383316
27.022307
26.779794
26.429555
26.202456
25.862081
25.649638
25.318291
25.119819
24.796731
24.6116
24.296055
24.123692
23.815029
23.65491
23.352512
23.204157
22.840209
367.88998
320.04467
283.08061
253.69448
229.79105
209.97413
193.28664
179.0418
166.74598
156.02174
146.59215
138.2308
130.77329
124.07319
118.02968
112.54127
107.54579
102.96796
98.770663
94.894202
91.318785
87.993879
84.912403
82.028962
79.346367
76.821682
74.465849
72.236577
70.151825
68.168608
66.311226
64.535042
62.870259
61.26981
59.769589
58.319507
56.961023
55.6405
54.404965
53.196822
52.068684
50.958588
49.924846
48.900796
47.950542
47.002376
46.126359
45.245453
44.435814
43.614759
42.86473
42.097155
41.400927
40.681288
40.033787
39.357255
38.75409
38.11643
37.553721
36.951193
36.425558
35.854868
35.363295
34.821495
34.361335
33.845824
33.414714
32.923135
32.518966
32.04923
31.670131
31.220336
30.864609
30.433049
30.099194
29.684323
29.370965
28.971367
28.677286
28.29169
28.015771
27.642995
27.38423
27.023211
26.780692
26.430441
26.203332
25.862945
25.650497
25.319141
25.120662
24.797562
24.612425
24.29687
24.124503
23.81583
23.655706
23.353297
23.204937
22.840978
367.88997
320.04466
283.08058
253.69442
229.79096
209.97399
193.28647
179.04158
166.7457
156.0214
146.59176
138.23035
130.77277
124.07261
118.02904
112.54058
107.54505
102.96717
98.76983
94.893332
91.31789
87.992968
84.911489
82.028059
79.345491
76.820849
74.46508
72.235888
70.151237
68.168139
66.310896
64.534864
62.870248
61.269974
59.769934
58.320033
56.961723
55.641367
54.405985
53.197981
52.069961
50.959966
49.926303
48.902316
47.952107
47.003971
46.12797
45.24707
44.437426
43.61636
42.866315
42.098718
41.402466
40.6828
40.035273
39.358712
38.75552
38.117831
37.555096
36.952539
36.42688
35.856163
35.364568
34.822743
34.362563
33.847029
33.4159
32.924299
32.520113
32.050358
31.671243
31.22143
30.865688
30.434112
30.100244
29.685356
29.371986
28.972373
28.678281
28.292671
28.016742
27.643952
27.385178
27.024145
26.781619
26.431355
26.204238
25.863838
25.651383
25.320015
25.121529
24.798418
24.613274
24.297709
24.125336
23.816652
23.656522
23.354103
23.205738
22.841766
367.88997
320.04464
283.08055
253.69436
229.79086
209.97385
193.28627
179.04133
166.74539
156.02103
146.59132
138.22984
130.77219
124.07196
118.02833
112.5398
107.5442
102.96626
98.768871
94.892327
91.316846
87.991897
84.910409
82.026979
79.344429
76.819827
74.464121
72.235008
70.150461
68.167494
66.310405
64.534539
62.870109
61.270038
59.770206
58.320508
56.962397
55.642239
54.407035
53.199184
52.071295
50.961419
49.927849
48.903926
47.95376
47.00566
46.129679
45.248777
44.439122
43.618045
42.867985
42.10036
41.404074
40.684379
40.036828
39.360235
38.757007
38.119284
37.556526
36.953943
36.428252
35.857503
35.365886
34.824042
34.363838
33.848274
33.417124
32.925507
32.521306
32.051526
31.67239
31.222561
30.86681
30.435216
30.101329
29.686423
29.373045
28.97342
28.679315
28.293686
28.017747
27.644947
27.386166
27.025119
26.78258
26.432305
26.205182
25.864772
25.652307
25.320927
25.122434
24.799313
24.614164
24.298587
24.126207
23.817512
23.657378
23.354949
23.206579
22.842595
367.88996
320.04462
283.08051
253.69429
229.79075
209.9737
193.28607
179.04105
166.74505
156.02062
146.59083
138.22928
130.77155
124.07124
118.02753
112.53892
107.54325
102.96523
98.767775
94.891169
91.315641
87.990652
84.909136
82.025697
79.34316
76.818586
74.462935
72.233905
70.149471
68.166637
66.309711
64.534037
62.86982
61.269971
59.770373
58.320918
56.963043
55.643103
54.408099
53.200434
52.072701
50.962948
49.929473
48.905631
47.955518
47.007445
46.131473
45.250576
44.440915
43.619815
42.869724
42.102071
41.40576
40.686029
40.038438
39.361809
38.758554
38.120798
37.558003
36.955384
36.42967
35.858895
35.36725
34.825371
34.365145
33.849562
33.418392
32.926746
32.522523
32.052726
31.673578
31.223726
30.867954
30.436341
30.102445
29.687524
29.374129
28.974484
28.680369
28.294729
28.018779
27.645961
27.387167
27.026108
26.783563
26.433273
26.20614
25.865715
25.653244
25.321852
25.123352
24.800217
24.61506
24.299472
24.127086
23.818379
23.658238
23.355798
23.207422
22.843425
367.88996
320.0446
283.08047
253.69422
229.79064
209.97353
193.28583
179.04076
166.74468
156.02017
146.5903
138.22866
130.77084
124.07044
118.02664
112.53794
107.54218
102.96407
98.766535
94.889853
91.314256
87.989209
84.907656
82.02419
79.341648
76.817096
74.461496
72.23254
70.148216
68.165529
66.308784
64.533315
62.869333
61.269746
59.770421
58.321239
56.963632
55.643956
54.409188
53.201728
52.074166
50.964564
49.9312
48.907434
47.95737
47.009333
46.133375
45.25247
44.442787
43.621666
42.87155
42.103859
41.407505
40.687736
40.040113
39.363444
38.760146
38.122352
37.559529
36.956879
36.431128
35.860317
35.368648
34.826747
34.366495
33.85088
33.419688
32.928024
32.523784
32.053961
31.67479
31.224921
30.869139
30.437507
30.103592
29.688652
29.375248
28.975591
28.681463
28.295803
28.019842
27.647014
27.388213
27.027138
26.784581
26.434279
26.207141
25.866704
25.654224
25.322819
25.124311
24.801167
24.616003
24.300403
24.12801
23.819294
23.659147
23.356697
23.208316
22.844306
367.88995
320.04458
283.08042
253.69414
229.79051
209.97334
193.28558
179.04043
166.74427
156.01968
146.58972
138.22798
130.77007
124.06956
118.02565
112.53685
107.54098
102.96278
98.765138
94.88836
91.31268
87.987556
84.90594
82.022431
79.339873
76.815322
74.459757
72.230874
70.146664
68.164122
66.307568
64.532334
62.86862
61.269323
59.770309
58.321454
56.964164
55.644784
54.410286
53.203073
52.075713
50.966268
49.933022
48.909348
47.959341
47.011327
46.135371
45.254461
44.44476
43.623602
42.873444
42.105713
41.409323
40.689507
40.041835
39.365123
38.761791
38.123957
37.561092
36.958401
36.432623
35.861783
35.370081
34.828143
34.367867
33.85223
33.421014
32.929319
32.525056
32.055214
31.676029
31.226135
30.87033
30.438679
30.104754
29.689796
29.376374
28.976696
28.682556
28.296884
28.020912
27.648064
27.38925
27.028162
26.785598
26.435281
26.208129
25.867678
25.65519
25.323773
25.125257
24.802097
24.616925
24.301313
24.128914
23.820184
23.660031
23.357567
23.209181
22.845156
367.88994
320.04455
283.08038
253.69405
229.79037
209.97315
193.28531
179.04008
166.74384
156.01915
146.58909
138.22725
130.76922
124.0686
118.02458
112.53565
107.53966
102.96133
98.763578
94.886685
91.310896
87.985671
84.903974
82.020396
79.337793
76.813227
74.457688
72.22886
70.144754
68.162367
66.306021
64.531037
62.86762
61.268665
59.770016
58.321532
56.964609
55.645588
54.411409
53.204472
52.077337
50.968081
49.934969
48.911384
47.961425
47.013441
46.137488
45.256555
44.446818
43.625623
42.875424
42.107642
41.411197
40.691331
40.043617
39.366857
38.763476
38.125596
37.562697
36.95997
36.434154
35.863274
35.371545
34.829582
34.369279
33.853608
33.422369
32.930654
32.526374
32.056505
31.677298
31.227385
30.871569
30.439899
30.105955
29.690978
29.377546
28.977856
28.683703
28.298012
28.022028
27.649169
27.390348
27.029244
26.786669
26.436339
26.209182
25.868719
25.656222
25.324791
25.126267
24.803098
24.61792
24.302296
24.129889
23.821149
23.66099
23.358516
23.210124
22.846087
367.88993
320.04453
283.08032
253.69396
229.79022
209.97294
193.28503
179.03971
166.74337
156.01858
146.58841
138.22646
130.76831
124.06756
118.0234
112.53434
107.53822
102.95975
98.76185
94.884816
91.308896
87.983545
84.901733
82.018058
79.335388
76.810777
74.455233
72.226447
70.14244
68.160203
66.304071
64.529367
62.866291
61.26772
59.76949
58.321452
56.964966
55.646359
54.41255
53.205944
52.079073
50.970019
49.937048
48.913563
47.963657
47.015687
46.139719
45.258761
44.448986
43.627737
42.877478
42.109639
41.413142
40.693217
40.045444
39.368629
38.765205
38.127277
37.564331
36.961557
36.435707
35.864793
35.373028
34.831025
34.370693
33.854997
33.423732
32.931984
32.527677
32.057786
31.678562
31.228624
30.872784
30.441092
30.107135
29.69214
29.37869
28.978976
28.68481
28.299105
28.023109
27.65023
27.391394
27.030275
26.787692
26.437345
26.210176
25.869696
25.657191
25.325746
25.127214
24.804028
24.618841
24.303203
24.13079
23.822035
23.661869
23.359382
23.210984
22.846932
367.88993
320.0445
283.08027
253.69386
229.79007
209.97271
193.28472
179.03932
166.74288
156.01798
146.5877
138.22561
130.76734
124.06645
118.02214
112.53293
107.53665
102.95801
98.759954
94.882753
91.306671
87.981162
84.899206
82.015398
79.332622
76.807932
74.452355
72.223583
70.139654
68.157562
66.301655
64.527254
62.864557
61.266432
59.768696
58.321182
56.965213
55.647103
54.413734
53.20751
52.080939
50.972116
49.939299
48.915912
47.96605
47.018086
46.142094
45.261093
44.451262
43.629949
42.879624
42.111716
41.415154
40.695164
40.047333
39.37046
38.766984
38.129006
37.566017
36.963199
36.437312
35.86636
35.374564
34.832528
34.372169
33.856444
33.425156
32.933382
32.529054
32.05914
31.679898
31.229939
30.874083
30.442372
30.108401
29.693388
29.379925
28.980195
28.686018
28.300297
28.02429
27.651397
27.392552
27.031419
26.788827
26.438467
26.211289
25.870796
25.658283
25.326826
25.128286
24.805088
24.619894
24.304245
24.131825
23.82306
23.662888
23.36039
23.211986
22.84792
367.88992
320.04447
283.08021
253.69376
229.78991
209.97247
193.2844
179.0389
166.74236
156.01734
146.58694
138.22472
130.7663
124.06526
118.0208
112.53141
107.53496
102.95614
98.757891
94.880496
91.304219
87.978515
84.896378
82.012394
79.329466
76.804656
74.449006
72.220208
70.136328
68.154368
66.298692
64.524613
62.862341
61.264737
59.767585
58.320691
56.965341
55.647832
54.414989
53.209208
52.08298
50.97442
49.94177
48.918473
47.968639
47.020671
46.144641
45.263574
44.453665
43.632274
42.881872
42.113878
41.417232
40.697167
40.049271
39.372329
38.768787
38.130748
37.567712
36.964845
36.438908
35.867907
35.376075
34.834005
34.37361
33.857843
33.426525
32.934724
32.530373
32.060425
31.681155
31.231172
30.8753
30.443565
30.109569
29.694532
29.381055
28.981308
28.687113
28.301369
28.025347
27.652439
27.393582
27.03243
26.789822
26.439445
26.212258
25.871749
25.659224
25.327748
25.129199
24.805987
24.620785
24.30512
24.132691
23.823912
23.663733
23.361221
23.212811
22.84873
367.8899
320.04444
283.08015
253.69365
229.78974
209.97223
193.28408
179.03847
166.74182
156.01668
146.58615
138.22379
130.76522
124.06401
118.01937
112.52981
107.53315
102.95413
98.755667
94.878048
91.301545
87.975606
84.893239
82.009032
79.325905
76.800915
74.445133
72.216262
70.132394
68.150534
66.295079
64.521351
62.859561
61.262553
59.766092
58.319955
56.96536
55.648568
54.416352
53.211107
52.085278
50.977
49.944518
48.921311
47.971494
47.023488
46.147389
45.266241
44.456242
43.63475
42.884251
42.116167
41.419443
40.699295
40.051324
39.374314
38.77072
38.132625
37.569536
36.966619
36.440647
35.869609
35.377741
34.83563
34.375209
33.859416
33.428073
32.936241
32.531865
32.061897
31.682612
31.232604
30.876711
30.444956
30.11095
29.695896
29.382402
28.982635
28.68843
28.302673
28.026641
27.653713
27.394844
27.033679
26.791064
26.440672
26.213473
25.87295
25.660417
25.328929
25.130371
24.807145
24.621934
24.306258
24.133822
23.825031
23.664845
23.362321
23.213905
22.849808
367.88989
320.04441
283.08008
253.69353
229.78956
209.97199
193.28374
179.03803
166.74127
156.016
146.58533
138.22282
130.76409
124.06271
118.01789
112.52812
107.53125
102.952
98.7533
94.875425
91.298654
87.972439
84.889795
82.005306
79.321912
76.796678
74.4407
72.211682
70.127762
68.145964
66.290716
64.517348
62.856094
61.259793
59.764166
58.318946
56.965273
55.64937
54.417917
53.2133
52.087929
50.979971
49.947661
48.924518
47.974681
47.026611
46.150412
45.269135
44.459003
43.637381
42.886759
42.118549
41.421708
40.701455
40.053395
39.376295
38.772617
38.134446
37.571297
36.968319
36.442288
35.871191
35.37928
34.837128
34.376664
33.860826
33.429447
32.937583
32.533178
32.063173
31.683857
31.233821
30.877909
30.446126
30.112094
29.697013
29.383503
28.983716
28.689492
28.303709
28.02766
27.654716
27.395834
27.034647
26.792015
26.441605
26.214396
25.873854
25.661308
25.329801
25.131233
24.807991
24.622772
24.307079
24.134634
23.825827
23.665634
23.363097
23.214674
22.850562
367.88988
320.04438
283.08001
253.69342
229.78939
209.97173
193.28339
179.03758
166.7407
156.01531
146.58449
138.22183
130.76293
124.06137
118.01635
112.52637
107.52928
102.94977
98.750807
94.872644
91.295571
87.969032
84.886055
82.00122
79.317488
76.791924
74.435659
72.206407
70.122355
68.140546
66.285468
64.512471
62.85182
61.256349
59.761736
58.317658
56.965138
55.650332
54.419814
53.215956
52.091116
50.983498
49.951349
48.928243
47.978353
47.030177
46.153847
45.272426
44.462152
43.640389
42.889641
42.121311
41.424364
40.70401
40.055864
39.378683
38.774934
38.136696
37.573489
36.970455
36.444376
35.873231
35.381279
34.839085
34.378587
33.86271
33.431301
32.939403
32.534971
32.064936
31.685596
31.235534
30.8796
30.447793
30.113742
29.698638
29.385111
28.985303
28.691063
28.30526
28.029196
27.656231
27.397335
27.03613
26.793485
26.443054
26.215833
25.875273
25.662715
25.33119
25.13261
24.809351
24.624121
24.308412
24.135957
23.827135
23.666932
23.36438
23.215949
22.851816
367.88988
320.04434
283.07996
253.69331
229.78921
209.97148
193.28305
179.03714
166.74014
156.01461
146.58366
138.22083
130.76177
124.06002
118.01479
112.52458
107.52725
102.94748
98.748218
94.869736
91.292324
87.965414
84.882043
81.996793
79.31264
76.786647
74.429983
72.200382
70.116084
68.134163
66.279189
64.506558
62.846584
61.252102
59.758748
58.316118
56.965061
55.651636
54.422277
53.219344
52.095123
50.987866
49.955838
48.932699
47.982658
47.034263