/*--------------------------------*- C++ -*----------------------------------*\
| =========                 |                                                 |
| \\      /  F ield         | OpenFOAM: The Open Source CFD Toolbox           |
|  \\    /   O peration     | Version:  2406                                  |
|   \\  /    A nd           | Website:  www.openfoam.com                      |
|    \\/     M anipulation  |                                                 |
\*---------------------------------------------------------------------------*/
FoamFile
{
    version     2.0;
    format      ascii;
    arch        "LSB;label=32;scalar=64";
    class       volScalarField;
    location    "700";
    object      p;
}
// * * * * * * * * * * * * * * * * * * * * * * * * * * * * * * * * * * * * * //

dimensions      [0 2 -2 0 0 0 0];

internalField   nonuniform List<scalar> 
16045
(
1.275621
1.2716614
1.2640686
1.2533535
1.2397733
1.2233016
1.203851
1.1813895
1.1559158
1.1274214
1.0958888
1.0613058
1.0236727
0.98300425
0.93933184
0.8927074
0.84320804
0.79094015
0.736043
0.67869239
0.61910329
0.5575322
0.49427829
0.42968353
0.36413123
0.29804322
0.23187511
0.16611008
0.10125065
0.037809223
-0.02370309
-0.08278815
-0.13897323
-0.19182318
-0.2409518
-0.2860321
-0.32680448
-0.36308255
-0.39475634
-0.42179274
-0.44423303
-0.46218799
-0.47583078
-0.48538817
-0.49113069
-0.49336212
-0.49240918
-0.48861145
-0.48231233
-0.47385094
-0.46355542
-0.45173749
-0.43868838
-0.4246759
-0.40994284
-0.39470605
-0.37915669
-0.36346075
-0.34776038
-0.33217538
-0.31680504
-0.30172997
-0.28701418
-0.27270691
-0.25884453
-0.24545233
-0.2325461
-0.22013365
-0.20821613
-0.19678925
-0.18584427
-0.17536898
-0.16534844
-0.15576569
-0.14660232
-0.13783894
-0.12945558
-0.12143201
-0.11374807
-0.10638379
-0.09931967
-0.0925367
-0.086016561
-0.07974154
-0.073694748
-0.067859954
-0.062221825
-0.056765707
-0.05147786
-0.046345193
-0.041355461
-0.036497191
-0.031759403
-0.027133406
-0.022607147
-0.018184876
-0.013826601
-0.0096460931
-0.0053207888
-0.0021498278
1.2788054
1.2758522
1.2691736
1.2591446
1.2461613
1.230259
1.2113536
1.1894107
1.1644322
1.1364115
1.1053304
1.0711734
1.0339367
0.9936292
0.95027551
0.90391961
0.85462976
0.80250286
0.74766832
0.69029194
0.63057904
0.5687772
0.50517794
0.44011728
0.37397484
0.3071716
0.2401655
0.17344561
0.10752413
0.0429269
-0.019817818
-0.080191527
-0.13769845
-0.19187853
-0.24231981
-0.28866964
-0.33064407
-0.3680346
-0.40071239
-0.42862932
-0.45181604
-0.47037726
-0.48448457
-0.49436739
-0.50030252
-0.50260317
-0.50160772
-0.4976691
-0.4911449
-0.48238874
-0.47174295
-0.45953272
-0.44606169
-0.43160889
-0.41642683
-0.40074076
-0.38474871
-0.36862233
-0.35250807
-0.33652899
-0.32078661
-0.30536299
-0.29032283
-0.27571552
-0.26157712
-0.24793223
-0.23479572
-0.22217426
-0.21006774
-0.19847056
-0.18737261
-0.17676033
-0.16661746
-0.15692579
-0.14766565
-0.13881656
-0.13035743
-0.12226713
-0.1145245
-0.10710883
-0.099999806
-0.093177808
-0.08662382
-0.08031967
-0.074247855
-0.068391805
-0.062735652
-0.057264497
-0.051964114
-0.046821214
-0.041823066
-0.036957984
-0.032214397
-0.027583309
-0.023051616
-0.01862317
-0.014253824
-0.010057476
-0.0056702848
-0.002390794
1.2847002
1.2820576
1.2756331
1.2657298
1.2528427
1.2370513
1.2182617
1.1964288
1.1715518
1.1436222
1.1126173
1.0785156
1.0413059
1.0009899
0.95758392
0.91112332
0.86166756
0.80930481
0.75415614
0.69637978
0.63617476
0.57378408
0.50949689
0.44364955
0.3766252
0.30885183
0.24079824
0.17296815
0.10589218
0.040117893
-0.023801968
-0.085322593
-0.14392111
-0.19911079
-0.2504548
-0.29757865
-0.34018066
-0.37803974
-0.41102009
-0.43907256
-0.46223249
-0.48061459
-0.49440484
-0.50385054
-0.50924872
-0.51093398
-0.5092663
-0.50461932
-0.49736991
-0.48788877
-0.47653296
-0.46363977
-0.44952232
-0.4344666
-0.41872986
-0.40253999
-0.38609601
-0.36956905
-0.35310399
-0.33682144
-0.32081986
-0.30517787
-0.28995652
-0.27520147
-0.26094511
-0.2472085
-0.23400315
-0.22133261
-0.20919393
-0.19757888
-0.18647505
-0.17586679
-0.16573606
-0.15606301
-0.14682667
-0.13800533
-0.12957695
-0.12151949
-0.11381117
-0.10643064
-0.09935717
-0.09257071
-0.086051995
-0.079782529
-0.073744678
-0.067921635
-0.062297496
-0.056857187
-0.051586489
-0.046471928
-0.041500738
-0.036660963
-0.031940891
-0.027331039
-0.022817818
-0.01840376
-0.014043431
-0.0098469389
-0.0054652629
-0.0022280012
1.2929404
1.2904332
1.2842862
1.2747154
1.2621887
1.2467852
1.2284011
1.2069778
1.1825062
1.1549716
1.1243434
1.0905904
1.0536916
1.0136373
0.97043196
0.9240982
0.87468215
0.82225836
0.76693462
0.70885655
0.64821192
0.58523446
0.52020682
0.4534623
0.38538522
0.31640946
0.24701497
0.17772212
0.10908365
0.041674312
-0.023921595
-0.087124378
-0.14737437
-0.20414775
-0.25697204
-0.3054403
-0.34922325
-0.3880783
-0.42185524
-0.45049802
-0.47404254
-0.49261097
-0.50640281
-0.51568363
-0.52077222
-0.52202695
-0.51983226
-0.5145859
-0.50668739
-0.49652808
-0.4844831
-0.47090512
-0.45611977
-0.44042287
-0.42407892
-0.40732088
-0.39035082
-0.37334132
-0.3564374
-0.33975877
-0.32340221
-0.30744413
-0.29194298
-0.27694163
-0.26246959
-0.24854504
-0.2351767
-0.2223655
-0.21010595
-0.19838754
-0.18719573
-0.17651298
-0.16631949
-0.15659392
-0.14731389
-0.13845652
-0.1299987
-0.12191747
-0.11419025
-0.10679503
-0.099710457
-0.092916001
-0.086391914
-0.080119329
-0.074080242
-0.068257588
-0.062635186
-0.057197773
-0.051930867
-0.046820787
-0.041854451
-0.037019634
-0.032304192
-0.027698229
-0.023187286
-0.018773368
-0.014408021
-0.010202998
-0.0057773776
-0.0024549747
1.3034138
1.3010063
1.2950818
1.2857784
1.2735155
1.2583736
1.2402529
1.2190892
1.1948653
1.1675591
1.1371318
1.1035425
1.0667579
1.0267557
0.98352591
0.93707618
0.88743692
0.83466695
0.77885873
0.72014375
0.65869762
0.59474473
0.52856207
0.46048207
0.39089373
0.32024194
0.24902455
0.17778694
0.10711379
0.037618221
-0.030071828
-0.095329297
-0.15754534
-0.21614752
-0.2706177
-0.32050867
-0.36545838
-0.40520082
-0.43957272
-0.46851576
-0.4920741
-0.51038765
-0.52368166
-0.53225351
-0.53645777
-0.53669049
-0.53337379
-0.52694146
-0.51782611
-0.5064484
-0.49320841
-0.47847915
-0.46260212
-0.44588475
-0.42859931
-0.41098312
-0.39323981
-0.37554117
-0.35802963
-0.34082091
-0.3240069
-0.30765848
-0.29182824
-0.27655313
-0.26185677
-0.24775172
-0.23424133
-0.22132154
-0.2089823
-0.19720891
-0.1859831
-0.17528398
-0.16508881
-0.15537365
-0.1461139
-0.13728468
-0.12886124
-0.12081921
-0.1131348
-0.105785
-0.098747638
-0.092001452
-0.08552612
-0.079302281
-0.073311573
-0.067536625
-0.061961048
-0.056569353
-0.05134688
-0.046279715
-0.041354593
-0.036559034
-0.031880665
-0.027309183
-0.022829702
-0.018443153
-0.014101041
-0.0099118812
-0.005517698
-0.0022614979
1.3160359
1.3137054
1.3079606
1.2989025
1.2869177
1.2720828
1.2542977
1.2334887
1.2096259
1.182675
1.1525848
1.1193002
1.0827724
1.0429616
0.99983967
0.95339475
0.90363721
0.85060563
0.7943727
0.73505144
0.67280117
0.60783328
0.54041624
0.47087955
0.39961602
0.32708209
0.25379568
0.18033107
0.10731064
0.035393202
-0.034740771
-0.10240684
-0.16693644
-0.22769789
-0.28411749
-0.33569917
-0.3820415
-0.42285069
-0.45794873
-0.48727599
-0.5108882
-0.5289484
-0.54171434
-0.54952288
-0.55277225
-0.55190376
-0.54738403
-0.53968855
-0.52928757
-0.51663422
-0.50215548
-0.48624556
-0.46926173
-0.45152216
-0.43330549
-0.41485174
-0.39636415
-0.37801181
-0.35993265
-0.34223667
-0.32500929
-0.30831447
-0.29219785
-0.27668949
-0.26180646
-0.24755516
-0.23393327
-0.22093154
-0.2085353
-0.19672572
-0.18548092
-0.17477685
-0.16458807
-0.1548883
-0.14565096
-0.13684953
-0.12845786
-0.12045045
-0.1128026
-0.10549055
-0.098491506
-0.091783716
-0.085346459
-0.079160095
-0.073206062
-0.067466864
-0.061925996
-0.05656787
-0.051377702
-0.046341471
-0.04144578
-0.036678038
-0.032025688
-0.027478207
-0.023020245
-0.018652527
-0.014325016
-0.010147943
-0.0057410446
-0.0024343394
1.3307368
1.3284745
1.3228946
1.3140777
1.3023796
1.2878629
1.2704204
1.2499681
1.2264621
1.1998548
1.1700808
1.1370691
1.1007531
1.0610734
1.0179807
0.97144062
0.92144015
0.86799395
0.81115132
0.75100313
0.6876892
0.62140517
0.5524091
0.48102681
0.40765574
0.33276647
0.25690162
0.18067135
0.10474497
0.029838521
-0.043301556
-0.11391857
-0.18126857
-0.24464508
-0.30340432
-0.35698879
-0.404948
-0.44695423
-0.48281241
-0.51246332
-0.53597968
-0.55355628
-0.56549454
-0.57218345
-0.57407836
-0.5716792
-0.56550967
-0.55609846
-0.54396326
-0.52959785
-0.51346251
-0.4959775
-0.47751917
-0.45841848
-0.43896135
-0.4193905
-0.39990818
-0.38067958
-0.36183667
-0.34348203
-0.32569272
-0.30852394
-0.29201245
-0.2761796
-0.26103416
-0.24657469
-0.23279165
-0.21966919
-0.20718668
-0.19531999
-0.18404251
-0.17332609
-0.16314166
-0.15345984
-0.14425137
-0.13548743
-0.12713998
-0.11918189
-0.11158712
-0.10433077
-0.097389117
-0.090739613
-0.084360938
-0.078232978
-0.072336816
-0.066654662
-0.061169772
-0.055866332
-0.050729373
-0.045744716
-0.040898855
-0.036179075
-0.031572681
-0.027068899
-0.022652154
-0.018322524
-0.014030572
-0.0098841361
-0.0055224688
-0.0022813855
1.3474553
1.3452592
1.3398409
1.331267
1.3198671
1.3056895
1.2886202
1.2685654
1.2454682
1.2192656
1.1898762
1.1572105
1.1211812
1.081706
1.0387104
0.99213327
0.94193343
0.8880967
0.83064371
0.76963803
0.70519474
0.6374891
0.56676474
0.49334094
0.41761832
0.34008211
0.26130244
0.18193055
0.10269063
0.024366618
-0.052216154
-0.12621387
-0.19679127
-0.26315109
-0.32456446
-0.38039962
-0.43014739
-0.47344045
-0.51006551
-0.53996694
-0.56324185
-0.58012743
-0.59098178
-0.59626034
-0.59649005
-0.59224321
-0.58411284
-0.57269104
-0.55855099
-0.54223281
-0.52423367
-0.50500144
-0.48493157
-0.46436657
-0.44359749
-0.42286684
-0.4023726
-0.3822726
-0.36268936
-0.34371465
-0.32541408
-0.30783118
-0.29099128
-0.2749048
-0.25957027
-0.24497683
-0.23110637
-0.21793539
-0.20543647
-0.19357953
-0.18233282
-0.17166373
-0.16153941
-0.15192729
-0.14279542
-0.13411279
-0.12584953
-0.11797707
-0.11046816
-0.10329697
-0.096439028
-0.089871247
-0.083571926
-0.077520708
-0.071698517
-0.066087459
-0.060670707
-0.055432408
-0.050357595
-0.045432142
-0.040642609
-0.035976334
-0.031420613
-0.02696461
-0.02259262
-0.018304709
-0.014051193
-0.0099405973
-0.0056029656
-0.0023588953
1.3661322
1.3640039
1.3587516
1.3504316
1.3393507
1.3255428
1.3088852
1.289273
1.266634
1.2408879
1.2119341
1.1796623
1.1439611
1.1047218
1.0618412
1.0152268
0.96480453
0.91052613
0.85237803
0.79039071
0.72464887
0.65530191
0.58257439
0.50677557
0.42830742
0.34767019
0.26546457
0.18238916
0.099232704
0.016860041
-0.063808193
-0.14182218
-0.21623474
-0.28613679
-0.35069431
-0.40918386
-0.46102388
-0.50579892
-0.54327448
-0.57340126
-0.59630873
-0.61228879
-0.62177153
-0.62529585
-0.62347758
-0.6169778
-0.60647358
-0.59263288
-0.57609415
-0.55745122
-0.53724307
-0.51594805
-0.49398176
-0.471698
-0.44939165
-0.42730319
-0.40562398
-0.38450207
-0.36404799
-0.34434029
-0.32543081
-0.30734939
-0.29010808
-0.27370475
-0.25812629
-0.24335121
-0.22935183
-0.21609615
-0.20354924
-0.19167448
-0.18043446
-0.16979171
-0.15970924
-0.15015098
-0.14108206
-0.13246906
-0.12428013
-0.11648505
-0.10905525
-0.1019638
-0.095185403
-0.08869634
-0.082474463
-0.076499099
-0.070750937
-0.065211903
-0.05986505
-0.054694462
-0.049685176
-0.044823107
-0.040094871
-0.035487827
-0.03098926
-0.026588265
-0.022269156
-0.018031827
-0.013827352
-0.0097628521
-0.0054784461
-0.0022861984
1.3867065
1.3846502
1.3795744
1.371527
1.3607929
1.3473923
1.3311932
1.3120786
1.2899606
1.2647406
1.2362974
1.2044978
1.1692041
1.130278
1.0875834
1.0409925
0.99039274
0.93569595
0.87684779
0.81383872
0.74671579
0.67559556
0.600677
0.52225391
0.44072597
0.35660722
0.27053075
0.1832481
0.095622197
0.008612873
-0.07674596
-0.15937696
-0.23819722
-0.31216126
-0.38030647
-0.44179724
-0.4959641
-0.54233413
-0.5806494
-0.61087188
-0.63317484
-0.64792149
-0.65563404
-0.65695657
-0.65261539
-0.64338039
-0.63003007
-0.61332229
-0.59397139
-0.57263206
-0.54988923
-0.52625329
-0.50215955
-0.47797096
-0.45398306
-0.43043033
-0.40749333
-0.38530591
-0.36396237
-0.34352403
-0.32402527
-0.30547885
-0.28788059
-0.27121325
-0.25544984
-0.24055636
-0.226494
-0.21322092
-0.20069362
-0.1888681
-0.17770058
-0.16714821
-0.15716946
-0.14772447
-0.13877524
-0.13028579
-0.1222222
-0.11455258
-0.10724703
-0.10027759
-0.093618202
-0.087244626
-0.081134349
-0.075266463
-0.069621522
-0.064181397
-0.058929169
-0.053849023
-0.048926148
-0.044146628
-0.039497225
-0.034965408
-0.030538555
-0.026205849
-0.0219518
-0.017776371
-0.013631458
-0.0096231509
-0.0053969869
-0.002250152
1.409114
1.4071357
1.4022516
1.3945017
1.3841499
1.3712025
1.3555182
1.3369677
1.3154463
1.2908358
1.2629927
1.2317583
1.1969656
1.1584431
1.1160177
1.0695206
1.0187951
0.96370625
0.90415125
0.84007212
0.77146964
0.69841862
0.62108399
0.53973678
0.45476883
0.36670518
0.27621214
0.18409952
0.091314978
-0.0010707925
-0.091889173
-0.17990928
-0.26388313
-0.3425981
-0.41493316
-0.47991433
-0.53676398
-0.58493936
-0.62415576
-0.6543922
-0.67587959
-0.68907279
-0.69461057
-0.69326835
-0.68590851
-0.67343296
-0.65674127
-0.6366966
-0.61410027
-0.58967485
-0.56405462
-0.53778255
-0.51131201
-0.48501197
-0.45917448
-0.43402341
-0.40972371
-0.38639044
-0.36409729
-0.34288443
-0.32276535
-0.30373279
-0.28576383
-0.26882406
-0.25287099
-0.23785681
-0.22373057
-0.21043984
-0.19793204
-0.18615534
-0.17505944
-0.16459592
-0.15471868
-0.14538408
-0.13655105
-0.12818113
-0.12023838
-0.11268935
-0.10550293
-0.098650296
-0.092104762
-0.085841683
-0.079838283
-0.074073502
-0.068527843
-0.06318323
-0.058022886
-0.053031211
-0.048193625
-0.043496426
-0.038926546
-0.034471596
-0.030119105
-0.025858436
-0.021674379
-0.017567148
-0.013489228
-0.009546345
-0.0053824635
-0.0022723845
1.4332846
1.4313921
1.426719
1.4192977
1.4093705
1.3969306
1.3818272
1.3639186
1.3430826
1.3191803
1.2920447
1.2614894
1.2273159
1.189316
1.1472755
1.1009793
1.0502207
0.99481009
0.93458795
0.86943828
0.79930505
0.72421049
0.64427477
0.55973623
0.47097089
0.3785096
0.28305103
0.18546765
0.086802501
-0.011745064
-0.10884712
-0.20308832
-0.29302
-0.37722456
-0.45438563
-0.52335815
-0.58323126
-0.63337741
-0.67348177
-0.7035488
-0.72388587
-0.7350663
-0.73787704
-0.73325816
-0.72224009
-0.7058852
-0.68523745
-0.66128308
-0.63492248
-0.60695308
-0.57806135
-0.54882219
-0.51970392
-0.49107672
-0.46322341
-0.43635113
-0.41060306
-0.38606956
-0.36279835
-0.3408036
-0.32007364
-0.30057756
-0.28227065
-0.26509875
-0.24900174
-0.23391633
-0.21977804
-0.20652277
-0.19408797
-0.18241337
-0.17144151
-0.16111811
-0.15139217
-0.14221605
-0.13354544
-0.12533926
-0.1175595
-0.11017106
-0.10314164
-0.096441511
-0.09004341
-0.083922286
-0.07805514
-0.072420805
-0.0669998
-0.061774181
-0.056727389
-0.051844093
-0.047109987
-0.042511613
-0.038036122
-0.033671336
-0.029405037
-0.025226848
-0.021122011
-0.017090694
-0.013087062
-0.0092136003
-0.005135292
-0.002113664
1.4591418
1.4573443
1.4529047
1.4458485
1.4363954
1.4245255
1.4100792
1.3929021
1.3728544
1.3497758
1.3234744
1.2937346
1.2603236
1.2229934
1.181484
1.135529
1.084864
1.0292371
0.96842166
0.90223237
0.83054383
0.75331213
0.67059886
0.58259647
0.48965366
0.39229895
0.2912598
0.18747407
0.082091015
-0.023541911
-0.12790873
-0.22937246
-0.32624004
-0.41684157
-0.49961857
-0.57321326
-0.6365493
-0.68889531
-0.72990237
-0.75961155
-0.77843125
-0.78708762
-0.78655598
-0.77798251
-0.76260466
-0.74167889
-0.71642034
-0.68795751
-0.65730192
-0.62533172
-0.59278629
-0.5602695
-0.528259
-0.49711909
-0.46711543
-0.43843044
-0.41117783
-0.38541624
-0.36116117
-0.33839532
-0.31707731
-0.29714879
-0.2785402
-0.26117522
-0.24497427
-0.22985713
-0.21574481
-0.20256087
-0.19023235
-0.17869029
-0.16787005
-0.15771143
-0.14815867
-0.1391603
-0.13066899
-0.12264127
-0.11503732
-0.10782071
-0.10095818
-0.094419369
-0.088176647
-0.082204783
-0.076480779
-0.070983612
-0.065694053
-0.060594496
-0.055668765
-0.050901909
-0.046279978
-0.041789844
-0.037418982
-0.033155555
-0.02898771
-0.024905457
-0.020894416
-0.016955265
-0.013042225
-0.009258852
-0.0052540958
-0.0022531584
1.4866005
1.4849085
1.4807286
1.474079
1.465156
1.4539267
1.4402236
1.42388
1.4047382
1.3826161
1.3572961
1.328532
1.2960546
1.2595729
1.2187771
1.1733436
1.1229433
1.0672527
1.0059673
0.93881945
0.86559944
0.78618091
0.7005496
0.60883489
0.51134263
0.40858652
0.30131572
0.19053411
0.077507116
-0.036248388
-0.14899507
-0.25882961
-0.36376052
-0.46180626
-0.55110676
-0.63003808
-0.69731724
-0.75208478
-0.79395338
-0.82301646
-0.83981619
-0.84527695
-0.8406144
-0.82723339
-0.80662687
-0.78028599
-0.74962817
-0.71594532
-0.6803723
-0.64387244
-0.60723666
-0.57109223
-0.53591791
-0.50206239
-0.46976411
-0.43917082
-0.41035768
-0.38334336
-0.35810402
-0.33458491
-0.31270999
-0.29238943
-0.27352563
-0.25601764
-0.23976452
-0.22466773
-0.2106327
-0.1975699
-0.18539548
-0.17403143
-0.16340573
-0.15345217
-0.14411014
-0.13532433
-0.12704436
-0.11922445
-0.11182303
-0.10480242
-0.098128492
-0.091770341
-0.085700009
-0.079892174
-0.074323912
-0.068974455
-0.063824938
-0.058858182
-0.054058443
-0.049411174
-0.044902802
-0.04052057
-0.036252345
-0.032086699
-0.028012232
-0.024019321
-0.020094182
-0.016237092
-0.012404933
-0.0086950436
-0.004798163
-0.0019310608
1.5155665
1.5139916
1.5101004
1.5039036
1.495573
1.4850631
1.4721994
1.4568034
1.4387
1.4176852
1.3935153
1.3659127
1.3345699
1.2991504
1.2592903
1.2146033
1.1646882
1.1091399
1.0475638
0.97959506
0.90492205
0.82331603
0.73466534
0.63901413
0.53660409
0.42791612
0.31370885
0.19504869
0.073325646
-0.049751383
-0.17218544
-0.29175308
-0.40609759
-0.51285069
-0.60977449
-0.69490974
-0.76671341
-0.82416692
-0.8668399
-0.8948998
-0.90906665
-0.91052286
-0.9007917
-0.88160346
-0.85476626
-0.8220547
-0.78512374
-0.74545102
-0.7043055
-0.66273732
-0.62158391
-0.58148634
-0.54291226
-0.50618148
-0.47149199
-0.43894446
-0.4085643
-0.38032055
-0.35414181
-0.32992918
-0.30756647
-0.28692822
-0.26788557
-0.25031059
-0.23407933
-0.2190738
-0.20518319
-0.19230453
-0.18034292
-0.16921143
-0.15883083
-0.14912922
-0.14004146
-0.13150875
-0.12347805
-0.11590159
-0.10873642
-0.10194397
-0.095489544
-0.089342028
-0.083473442
-0.077858655
-0.072475069
-0.067302393
-0.062322314
-0.057518229
-0.052874954
-0.048378457
-0.044015646
-0.039774233
-0.035642558
-0.031609677
-0.027664657
-0.023798339
-0.019997246
-0.01626249
-0.012549995
-0.0089609358
-0.0051457145
-0.0022665781
1.5459349
1.54449
1.540919
1.5352257
1.5275557
1.5178515
1.5059328
1.4916107
1.4746931
1.4549547
1.4321259
1.4058973
1.3759221
1.341816
1.3031576
1.2594923
1.2103392
1.1552015
1.0935812
1.0249991
0.94902162
0.86529382
0.77358002
0.67381085
0.56613567
0.45097722
0.3290844
0.20157698
0.069974588
-0.063798605
-0.19744226
-0.32834806
-0.45371093
-0.57068038
-0.67654199
-0.768911
-0.8459142
-0.90633383
-0.94969163
-0.97625923
-0.98699454
-0.98341747
-0.96744665
-0.94122305
-0.90694423
-0.86672611
-0.82250103
-0.77595523
-0.72850008
-0.6812701
-0.63513911
-0.59074742
-0.5485347
-0.50877449
-0.47160778
-0.43707319
-0.40513333
-0.37569658
-0.34863495
-0.32379811
-0.30102419
-0.28014774
-0.26100547
-0.24344019
-0.22730333
-0.21245642
-0.1987718
-0.18613271
-0.17443308
-0.16357708
-0.15347843
-0.14405968
-0.13525149
-0.12699181
-0.11922525
-0.11190236
-0.10497909
-0.098416186
-0.092178728
-0.086235607
-0.080559129
-0.075124617
-0.069910066
-0.064895834
-0.060064324
-0.055399628
-0.050887235
-0.046513757
-0.042266722
-0.038134429
-0.034105792
-0.030170398
-0.026317852
-0.022539358
-0.018822212
-0.015166598
-0.011532824
-0.0080110267
-0.0043297864
-0.0016567178
1.5775894
1.5762883
1.5730717
1.5679361
1.5610003
1.5521951
1.5413362
1.5282256
1.5126558
1.494381
1.4731069
1.4484924
1.4201514
1.3876502
1.350507
1.3081943
1.2601439
1.2057567
1.1444169
1.0755129
0.99846535
0.91276515
0.81802005
0.71401138
0.60075919
0.47859287
0.34822252
0.21080355
0.067984728
-0.078072428
-0.2247151
-0.36887242
-0.50718732
-0.63620483
-0.7526056
-0.85346042
-0.9364732
-1.0001744
-1.0440334
-1.0684689
-1.0747582
-1.0648655
-1.0412198
-1.0064818
-0.96333089
-0.91429257
-0.86162052
-0.80723101
-0.75268154
-0.69918201
-0.64762568
-0.5986306
-0.55258539
-0.50969489
-0.47002234
-0.43352626
-0.40009116
-0.36955234
-0.3417154
-0.31637107
-0.2933062
-0.27231147
-0.25318651
-0.2357432
-0.21980748
-0.20522009
-0.19183653
-0.17952661
-0.1681736
-0.15767327
-0.14793286
-0.13886997
-0.13041155
-0.12249287
-0.11505668
-0.10805231
-0.10143499
-0.095165169
-0.089207944
-0.083532495
-0.078111667
-0.072921466
-0.067940678
-0.063150447
-0.058533967
-0.05407607
-0.049762953
-0.045581913
-0.041521129
-0.037569514
-0.033716536
-0.029952286
-0.026266795
-0.022651767
-0.019094654
-0.015597225
-0.012116831
-0.0087530785
-0.005146045
-0.0023782443
1.6104017
1.6092589
1.6064325
1.6019123
1.5957887
1.5879819
1.5783057
1.5665552
1.5525089
1.5359027
1.516419
1.4936869
1.4672811
1.4367186
1.4014554
1.3608868
1.3143508
1.2611358
1.2004933
1.1316587
1.0538811
0.96646409
0.86881979
0.76053557
0.64145411
0.51176359
0.37209292
0.22360315
0.068062256
-0.092112225
-0.25386099
-0.41355808
-0.56716477
-0.71046429
-0.83936346
-0.95023035
-1.0402219
-1.1075476
-1.1516205
-1.1730672
-1.1735973
-1.1557626
-1.1226549
-1.0775948
-1.0238569
-0.9644571
-0.90201698
-0.83870014
-0.77620608
-0.71580191
-0.65837385
-0.60448755
-0.55445017
-0.5083692
-0.46620505
-0.42781474
-0.39298725
-0.36147078
-0.33299366
-0.30727955
-0.28405811
-0.26307191
-0.24408073
-0.22686379
-0.21122058
-0.19697067
-0.18395281
-0.17202371
-0.16105656
-0.15093942
-0.14157377
-0.13287302
-0.12476116
-0.11717152
-0.11004571
-0.10333254
-0.096987231
-0.090970554
-0.085248216
-0.079790242
-0.074570493
-0.069566099
-0.064757017
-0.060125525
-0.055655898
-0.051333968
-0.047146859
-0.043082741
-0.039130615
-0.035280156
-0.031521521
-0.027845402
-0.02424244
-0.020704679
-0.017220679
-0.013790317
-0.010378513
-0.0070652688
-0.0036381781
-0.0012179641
1.6442303
1.6432609
1.6408622
1.6370175
1.6317877
1.6250839
1.6167201
1.6064874
1.5941529
1.5794366
1.5620006
1.5414464
1.5173121
1.4890659
1.4561013
1.4177342
1.3732032
1.3216743
1.2622516
1.1939964
1.1159568
1.027212
0.92693146
0.81445339
0.6893815
0.55169864
0.40189211
0.24108066
0.071127129
-0.10528416
-0.28463068
-0.46262149
-0.63437442
-0.79470697
-0.9385284
-1.0612911
-1.1594377
-1.2307638
-1.2746247
-1.2919422
-1.2850146
-1.2571769
-1.2123849
-1.1548001
-1.0884326
-1.0168815
-0.9431826
-0.86975608
-0.79842705
-0.73048811
-0.66677932
-0.60777257
-0.55365376
-0.5043976
-0.4598316
-0.41968714
-0.38363871
-0.35133326
-0.32241165
-0.29652348
-0.27333674
-0.25254339
-0.23386207
-0.21703909
-0.20184779
-0.18808723
-0.17558025
-0.16417136
-0.15372454
-0.14412101
-0.1352573
-0.12704332
-0.11940069
-0.1122613
-0.10556601
-0.099263489
-0.093309215
-0.087664625
-0.082296299
-0.077175349
-0.072276774
-0.067578933
-0.063062986
-0.058712398
-0.054512516
-0.050450186
-0.046513432
-0.042691238
-0.038973342
-0.035350087
-0.031812227
-0.028351006
-0.024957507
-0.021624417
-0.018340177
-0.015107628
-0.011884792
-0.0087717714
-0.0053754959
-0.0026769174
1.6789201
1.6781396
1.6762071
1.6730994
1.6688476
1.6633547
1.6564387
1.6478891
1.6374652
1.6248749
1.6097636
1.5917093
1.5702167
1.5447086
1.5145174
1.478879
1.4369289
1.3877029
1.3301437
1.2631167
1.1854382
1.0959202
0.99343505
0.87700464
0.74591547
0.59986006
0.43909967
0.26463778
0.078385136
-0.11671078
-0.31660821
-0.51622338
-0.70962792
-0.89040846
-1.0521774
-1.1891821
-1.2969216
-1.3726526
-1.4156755
-1.427334
-1.4107341
-1.3702611
-1.3110039
-1.2381973
-1.1567602
-1.0709787
-0.98434378
-0.89952611
-0.81844156
-0.74235834
-0.67201486
-0.60773406
-0.54952964
-0.49719946
-0.45040189
-0.40871392
-0.37167339
-0.33880944
-0.30966357
-0.28380339
-0.26083019
-0.24038247
-0.2221367
-0.20580633
-0.19113954
-0.17791636
-0.16594547
-0.1550611
-0.14511997
-0.13599838
-0.12758974
-0.11980219
-0.11255661
-0.1057849
-0.099428476
-0.09343701
-0.08776733
-0.08238245
-0.077250697
-0.07234501
-0.067642161
-0.063122248
-0.058768071
-0.054564656
-0.05049875
-0.046558497
-0.042733074
-0.039012482
-0.035387373
-0.031848923
-0.028388685
-0.024998623
-0.021670619
-0.018397679
-0.015169871
-0.011986316
-0.0088181084
-0.005731113
-0.0026047268
-0.00052345998
1.7143025
1.7137265
1.7122986
1.7099901
1.7068014
1.7026296
1.6972996
1.6906037
1.6822974
1.6720811
1.6595885
1.6443798
1.6259319
1.603627
1.5767406
1.5444307
1.5057291
1.4595359
1.4046204
1.3396316
1.2631215
1.1735888
1.0695459
0.94961781
0.81267613
0.65801195
0.48554403
0.29605238
0.091415334
-0.12518554
-0.34914106
-0.57442859
-0.79382098
-0.99932679
-1.182858
-1.3370591
-1.456168
-1.5367323
-1.5780091
-1.5819487
-1.5527752
-1.4962915
-1.4190794
-1.3277478
-1.2283359
-1.1259282
-1.0244973
-0.92693273
-0.83517799
-0.75040172
-0.67316422
-0.603568
-0.54139236
-0.4862078
-0.43746504
-0.39455839
-0.35686896
-0.3237943
-0.29476794
-0.2692704
-0.24683368
-0.22704186
-0.20952921
-0.19397693
-0.18010894
-0.16768732
-0.15650768
-0.14639497
-0.13719951
-0.12879353
-0.12106796
-0.11392985
-0.10729992
-0.10111065
-0.095304571
-0.089832869
-0.084654131
-0.079733326
-0.075040853
-0.070551692
-0.066244628
-0.062101611
-0.058107195
-0.054247975
-0.050512104
-0.046888942
-0.043368725
-0.039942356
-0.036601269
-0.033337372
-0.030142918
-0.027010591
-0.023932821
-0.020903556
-0.017912271
-0.014963395
-0.012014251
-0.0091688151
-0.0059662111
-0.0032582518
1.7501947
1.7498385
1.7489534
1.7475054
1.7454643
1.7427233
1.7391186
1.7344495
1.7284726
1.7208864
1.71132
1.6993228
1.6843514
1.6657554
1.6427605
1.6144527
1.5797629
1.5374543
1.4861145
1.4241579
1.3498409
1.2613
1.1566175
1.0339269
0.89156445
0.7282767
0.54348185
0.33757996
0.11228646
-0.12905329
-0.3812352
-0.63713701
-0.88791954
-1.123557
-1.3337111
-1.5088697
-1.6415648
-1.7274
-1.7656179
-1.7590484
-1.7134751
-1.6366276
-1.5370638
-1.4231563
-1.3023183
-1.1805442
-1.0622857
-0.95057951
-0.84729466
-0.75339171
-0.66914804
-0.59435021
-0.52846137
-0.47075995
-0.42044075
-0.3766807
-0.33868017
-0.30568998
-0.27702745
-0.25208302
-0.23031992
-0.21127052
-0.19453097
-0.17975509
-0.16664757
-0.15495746
-0.14447195
-0.13501096
-0.12642218
-0.11857692
-0.11136643
-0.10469898
-0.098497101
-0.09269555
-0.087239418
-0.082082661
-0.077186695
-0.072519318
-0.068053702
-0.063767444
-0.05964186
-0.055661186
-0.051812095
-0.04808306
-0.044463905
-0.040945402
-0.037519023
-0.034176742
-0.030910984
-0.027714616
-0.02458085
-0.021503261
-0.018475331
-0.01549127
-0.012542968
-0.0096282169
-0.0067262766
-0.0038840287
-0.0011161922
0.00051076726
1.7864005
1.7862788
1.7859729
1.7854448
1.7846332
1.7834304
1.7816879
1.7792174
1.7757824
1.7710866
1.7647622
1.7563571
1.745318
1.7309724
1.7125073
1.6889469
1.6591296
1.6216857
1.5750188
1.5172954
1.4464487
1.3602039
1.2561376
1.1317831
0.98479671
0.81319822
0.61569413
0.39208159
0.14371042
-0.12604722
-0.41140642
-0.70397994
-0.99293177
-1.2655996
-1.5086386
-1.7095998
-1.8586766
-1.9502027
-1.9834656
-1.9625841
-1.8955344
-1.7926802
-1.6652083
-1.5237604
-1.377422
-1.2331898
-1.0959354
-0.96870614
-0.85314211
-0.74985103
-0.65869943
-0.57904826
-0.50995694
-0.45034745
-0.39911422
-0.35518599
-0.31756105
-0.28532936
-0.25768351
-0.23391909
-0.21342814
-0.19569048
-0.18026448
-0.16677751
-0.15491653
-0.1444192
-0.13506619
-0.12667431
-0.11909063
-0.11218748
-0.10585827
-0.10001418
-0.094581138
-0.089497609
-0.084712505
-0.080183668
-0.075876319
-0.071761898
-0.067816918
-0.064022137
-0.060361655
-0.056822243
-0.053392821
-0.050063788
-0.046826572
-0.043673304
-0.040596606
-0.03758943
-0.034645114
-0.031757411
-0.0289204
-0.026128559
-0.023376021
-0.020658372
-0.017966256
-0.015306468
-0.012634074
-0.010061227
-0.0070162106
-0.0041892743
1.8227104
1.822837
1.8231445
1.8235917
1.8240867
1.824524
1.8247752
1.82467
1.8239854
1.8224381
1.8196736
1.8152491
1.8086144
1.7990892
1.785837
1.767836
1.7438468
1.7123786
1.6716569
1.619596
1.5537845
1.4714921
1.3697119
1.2452575
1.0949342
0.91580841
0.7055971
0.46318278
0.18924252
-0.11306572
-0.43746796
-0.77416245
-1.1098521
-1.4284412
-1.7125276
-1.9456097
-2.1146304
-2.2121978
-2.237763
-2.1973522
-2.1020467
-1.9658291
-1.8034013
-1.6283322
-1.4517241
-1.2816232
-1.1231657
-0.97916994
-0.85080525
-0.73811293
-0.64036481
-0.55634295
-0.48458695
-0.42358595
-0.37188914
-0.32815317
-0.29116445
-0.25985288
-0.23329425
-0.21070064
-0.19140508
-0.17484677
-0.16055723
-0.14814708
-0.1372935
-0.12772936
-0.11923394
-0.11162497
-0.10475201
-0.098490846
-0.092739022
-0.087412139
-0.082440773
-0.07776811
-0.073347794
-0.069142288
-0.065121224
-0.06126018
-0.057539462
-0.0539434
-0.050459217
-0.047076451
-0.043786503
-0.040581882
-0.037455816
-0.03440195
-0.031414279
-0.028487083
-0.025614944
-0.02279279
-0.020015868
-0.017279683
-0.0145796
-0.011911223
-0.0092687164
-0.006648207
-0.0040395488
-0.0014659368
0.00087530082
0.0019146126
1.8589028
1.8592899
1.8602415
1.861714
1.8635857
1.8657567
1.8681236
1.8705403
1.8728047
1.8746559
1.8757632
1.8757069
1.8739551
1.869838
1.8625158
1.850943
1.833825
1.8095716
1.7762472
1.7315222
1.6726321
1.5963566
1.4990329
1.3766284
1.2249025
1.0396937
0.8173696
0.5554699
0.25354381
-0.085865928
-0.45622381
-0.84622204
-1.2395579
-1.6156472
-1.9515531
-2.2251028
-2.4186534
-2.5224478
-2.5363306
-2.4691832
-2.3365141
-2.1572995
-1.950964
-1.7348437
-1.5224247
-1.3227474
-1.1409162
-0.97917213
-0.83791555
-0.71638409
-0.61305341
-0.52595365
-0.45297214
-0.39207619
-0.34141093
-0.29931891
-0.26434549
-0.2352438
-0.21096607
-0.19064006
-0.1735429
-0.15907878
-0.1467599
-0.13618847
-0.12704047
-0.11905214
-0.11200891
-0.10573622
-0.10009199
-0.094960653
-0.09024824
-0.08587851
-0.081789893
-0.077932869
-0.074267965
-0.070763926
-0.067396048
-0.064144904
-0.06099533
-0.057935467
-0.05495596
-0.052049228
-0.049209002
-0.04642968
-0.043705962
-0.041032839
-0.038405551
-0.035819633
-0.033270897
-0.030755493
-0.028269805
-0.025810427
-0.023373337
-0.020956017
-0.018550583
-0.016167335
-0.013758084
-0.011447216
-0.0085119214