/*--------------------------------*- C++ -*----------------------------------*\
| =========                 |                                                 |
| \\      /  F ield         | OpenFOAM: The Open Source CFD Toolbox           |
|  \\    /   O peration     | Version:  2406                                  |
|   \\  /    A nd           | Website:  www.openfoam.com                      |
|    \\/     M anipulation  |                                                 |
\*---------------------------------------------------------------------------*/
FoamFile
{
    version     2.0;
    format      ascii;
    arch        "LSB;label=32;scalar=64";
    class       surfaceScalarField;
    location    "700";
    object      phi;
}
// * * * * * * * * * * * * * * * * * * * * * * * * * * * * * * * * * * * * * //

dimensions      [0 3 -1 0 0 0 0];

oriented        oriented;

internalField   nonuniform List<scalar> 
39940
(
0.75000231
-1.8718882e-06
0.75000723
-6.3125382e-06
0.75001477
-1.1359843e-05
0.75002482
-1.6842105e-05
0.75003733
-2.2709471e-05
0.75005231
-2.8948806e-05
0.75007038
-3.6147273e-05
0.75009036
-4.2488774e-05
0.75011284
-4.9758154e-05
0.75013786
-5.7340518e-05
0.7501654
-6.5219716e-05
0.75019549
-7.3375997e-05
0.75022871
-8.2385277e-05
0.75026384
-9.0417116e-05
0.75030144
-9.9235661e-05
0.75034146
-0.00010819706
0.75038443
-0.00011785
0.75042903
-0.00012633356
0.75047634
-0.00013598008
0.750525
-0.00014431108
0.750576
-0.00015364273
0.75062791
-0.00016148069
0.75068167
-0.0001701283
0.75073577
-0.00017708071
0.75079108
-0.0001846354
0.75084603
-0.00019028579
0.75090144
-0.00019633407
0.75095569
-0.0002002839
0.75100957
-0.00020445532
0.75106146
-0.00020637601
0.75111212
-0.00020839723
0.75115997
-0.0002080833
0.75120523
-0.00020722659
0.75124816
-0.00020584039
0.75128727
-0.00020215844
0.75132291
-0.00019804339
0.7513549
-0.00019297525
0.75138313
-0.00018705355
0.75140753
-0.00018039286
0.7514275
-0.00017251751
0.75144431
-0.00016536268
0.75145747
-0.00015725933
0.75146656
-0.00014833858
0.75147297
-0.00014052946
0.75147575
-0.00013154316
0.75147635
-0.00012388838
0.75147384
-0.00011525059
0.75146972
-0.00010811016
0.75146305
-0.00010012296
0.75145533
-9.3739847e-05
0.7514456
-8.6588444e-05
0.75143533
-8.1093271e-05
0.75142354
-7.4858402e-05
0.75141165
-7.0287674e-05
0.75139865
-6.49678e-05
0.7513859
-6.1288269e-05
0.75137295
-5.7425729e-05
0.75135934
-5.3356755e-05
0.75134637
-5.08587e-05
0.75133354
-4.8101032e-05
0.75132031
-4.5055968e-05
0.75130795
-4.3499031e-05
0.75129591
-4.1599993e-05
0.75128422
-3.9934012e-05
0.75127291
-3.8476482e-05
0.751262
-3.7204414e-05
0.75125089
-3.549542e-05
0.75124079
-3.5132916e-05
0.7512311
-3.4295912e-05
0.75122182
-3.3569267e-05
0.75121293
-3.2938294e-05
0.75120442
-3.2390014e-05
0.75119629
-3.1912686e-05
0.75118852
-3.1496102e-05
0.75118109
-3.1131045e-05
0.75117398
-3.080963e-05
0.75116719
-3.0524715e-05
0.75116069
-3.0270281e-05
0.75115446
-3.0040858e-05
0.7511485
-2.983188e-05
0.75114279
-2.9639186e-05
0.7511373
-2.9459296e-05
0.75113204
-2.9289056e-05
0.75112697
-2.9125802e-05
0.75112209
-2.8967177e-05
0.75111739
-2.8811103e-05
0.75111285
-2.8655844e-05
0.75110846
-2.8499771e-05
0.75110421
-2.8341692e-05
0.75110009
-2.8180335e-05
0.75109608
-2.8015006e-05
0.75109218
-2.7844827e-05
0.75108837
-2.7669788e-05
0.75108465
-2.7489548e-05
0.75108102
-2.7305405e-05
0.75107746
-2.7117308e-05
0.75107397
-2.6932494e-05
0.75107055
-2.6746042e-05
0.75106723
-2.6621542e-05
-2.6493963e-05
0.75000164
-3.5085855e-06
0.750006
-1.066541e-05
0.75001354
-1.8894154e-05
0.75002302
-2.6322709e-05
0.75003503
-3.4712371e-05
0.75004955
-4.3462999e-05
0.75006598
-5.2573508e-05
0.75008553
-6.2035373e-05
0.75010821
-7.2437056e-05
0.75013284
-8.1964602e-05
0.75016002
-9.2399731e-05
0.75019037
-0.00010371757
0.75022207
-0.00011408495
0.75025752
-0.0001258609
0.75029488
-0.00013659328
0.75033531
-0.00014862076
0.75037753
-0.00016006915
0.75042265
-0.00017145286
0.75046875
-0.00018207451
0.75051807
-0.00019362628
0.75056862
-0.00020418789
0.75062138
-0.00021423135
0.75067548
-0.00022422217
0.75073062
-0.00023221961
0.75078588
-0.00023988565
0.75084208
-0.00024648302
0.75089764
-0.00025188386
0.75095334
-0.00025597266
0.75100754
-0.00025865142
0.75106101
-0.00025984488
0.75111213
-0.00025950444
0.75116166
-0.00025761169
0.75120802
-0.00025357997
0.75125145
-0.00024926014
0.75129163
-0.00024232963
0.7513283
-0.0002347041
0.75136125
-0.00022592304
0.75139035
-0.00021614994
0.75141553
-0.00020556543
0.75143678
-0.00019375949
0.75145415
-0.0001827302
0.75146716
-0.00017026528
0.75147718
-0.00015835071
0.75148321
-0.00014655415
0.7514867
-0.0001350261
0.75148671
-0.00012389594
0.75148473
-0.00011327043
0.75147985
-0.00010323324
0.75147358
-9.3845491e-05
0.75146499
-8.5147102e-05
0.75145556
-7.7159079e-05
0.75144435
-6.9885257e-05
0.75143281
-6.3315523e-05
0.75141995
-5.7428086e-05
0.75140717
-5.2192137e-05
0.75139345
-4.7570175e-05
0.75137954
-4.3520033e-05
0.75136618
-3.9996983e-05
0.75135288
-3.7556082e-05
0.75133912
-3.4348159e-05
0.7513268
-3.2732734e-05
0.75131356
-3.0262518e-05
0.75130126
-2.9301167e-05
0.75128933
-2.8007634e-05
0.7512772
-2.6347071e-05
0.75126608
-2.6090656e-05
0.75125599
-2.5406506e-05
0.75124573
-2.486974e-05
0.75123589
-2.445736e-05
0.75122647
-2.4148941e-05
0.75121686
-2.3325658e-05
0.75120825
-2.3774765e-05
0.75120002
-2.3679829e-05
0.75119216
-2.3630077e-05
0.75118465
-2.3615543e-05
0.75117748
-2.3627601e-05
0.75117062
-2.3659047e-05
0.75116407
-2.3703679e-05
0.7511578
-2.3756376e-05
0.7511518
-2.3812745e-05
0.75114605
-2.386918e-05
0.75114054
-2.392262e-05
0.75113525
-2.3970535e-05
0.75113016
-2.4010817e-05
0.75112526
-2.4041685e-05
0.75112054
-2.4061743e-05
0.75111599
-2.4069743e-05
0.75111159
-2.4064808e-05
0.75110733
-2.4046067e-05
0.7511032
-2.4013123e-05
0.75109918
-2.396554e-05
0.75109528
-2.3903477e-05
0.75109147
-2.3827051e-05
0.75108775
-2.3737239e-05
0.7510841
-2.3635432e-05
0.75108054
-2.3524167e-05
0.75107703
-2.3408505e-05
0.75107359
-2.3292075e-05
0.75107016
-2.3183548e-05
-2.303287e-05
0.75000203
-4.9338595e-06
0.75000623
-1.4862353e-05
0.75001244
-2.5104093e-05
0.75002182
-3.5691732e-05
0.75003373
-4.6614665e-05
0.75004815
-5.7882464e-05
0.75006569
-7.0108152e-05
0.75008515
-8.1494311e-05
0.75010655
-9.3835432e-05
0.75013171
-0.00010711926
0.75015884
-0.0001195256
0.75018855
-0.00013342543
0.75022145
-0.00014697796
0.75025632
-0.00016073061
0.75029435
-0.00017461744
0.75033429
-0.00018855768
0.75037668
-0.00020245608
0.75042143
-0.00021620145
0.75046903
-0.00022966732
0.75051872
-0.00024331298
0.75057032
-0.00025578342
0.75062301
-0.00026691236
0.75067712
-0.00027832809
0.75073296
-0.00028805112
0.75078898
-0.00029590382
0.75084603
-0.00030351663
0.75090308
-0.00030892842
0.75095971
-0.00031259909
0.75101488
-0.00031381233
0.75106933
-0.00031428655
0.7511214
-0.00031157148
0.75117126
-0.00030746406
0.75121909
-0.00030140209
0.7512633
-0.00029346949
0.75130417
-0.00028319309
0.75134202
-0.00027254457
0.75137543
-0.00025932363
0.75140425
-0.00024496411
0.75142961
-0.00023091979
0.7514509
-0.00021504765
0.75146759
-0.0001994133
0.751481
-0.00018366933
0.75149071
-0.00016805355
0.75149634
-0.0001521788
0.75149935
-0.00013803529
0.75149883
-0.00012337367
0.75149568
-0.00011012052
0.75149082
-9.8366678e-05
0.75148334
-8.6368587e-05
0.75147416
-7.5962093e-05
0.75146355
-6.6553026e-05
0.75145239
-5.8728726e-05
0.75143973
-5.0654471e-05
0.75142699
-4.4690205e-05
0.75141318
-3.8376572e-05
0.75139966
-3.4056637e-05
0.751386
-2.9861437e-05
0.75137233
-2.6324947e-05
0.75135815
-2.3380189e-05
0.75134476
-2.096206e-05
0.75133104
-1.9008284e-05
0.75131883
-1.8061374e-05
0.75130579
-1.6263819e-05
0.75129375
-1.5970052e-05
0.75128214
-1.4730711e-05
0.75127095
-1.4909365e-05
0.75125961
-1.4065755e-05
0.75124931
-1.4572055e-05
0.75123945
-1.4597245e-05
0.75123002
-1.4718048e-05
0.75122161
-1.4913475e-05
0.75121301
-1.516558e-05
0.75120419
-1.4858105e-05
0.75119635
-1.5781097e-05
0.75118886
-1.6120833e-05
0.75118171
-1.6469359e-05
0.75117488
-1.681927e-05
0.75116836
-1.7164563e-05
0.75116212
-1.7500334e-05
0.75115615
-1.782268e-05
0.75115043
-1.8128456e-05
0.75114494
-1.8415208e-05
0.75113968
-1.868101e-05
0.75113462
-1.8924389e-05
0.75112975
-1.9144239e-05
0.75112506
-1.9339726e-05
0.75112054
-1.9510294e-05
0.75111616
-1.9655547e-05
0.75111193
-1.9775357e-05
0.75110782
-1.9869705e-05
0.75110383
-1.9938904e-05
0.75109994
-1.9983409e-05
0.75109615
-2.000421e-05
0.75109245
-2.0002527e-05
0.75108882
-1.9980709e-05
0.75108526
-1.9941018e-05
0.75108176
-1.989019e-05
0.75107831
-1.9828699e-05
0.75107494
-1.9800191e-05
-1.979054e-05
0.75000135
-6.280591e-06
0.75000537
-1.8873521e-05
0.75001195
-3.167919e-05
0.75002104
-4.478109e-05
0.75003324
-5.8805528e-05
0.75004733
-7.1973421e-05
0.75006333
-8.6106231e-05
0.75008306
-0.00010121586
0.75010473
-0.00011550184
0.75012897
-0.00013135405
0.7501564
-0.00014695142
0.75018583
-0.00016286081
0.7502179
-0.00017903495
0.75025258
-0.00019541048
0.75028987
-0.00021190774
0.75033035
-0.00022902874
0.75037275
-0.00024485547
0.75041821
-0.00026165249
0.75046601
-0.00027746242
0.75051541
-0.00029271166
0.75056684
-0.00030720902
0.75062129
-0.0003213501
0.75067608
-0.00033311883
0.75073273
-0.00034469663
0.7507903
-0.00035346308
0.7508484
-0.00036160963
0.75090602
-0.00036653892
0.75096391
-0.00037048342
0.751021
-0.00037090261
0.75107623
-0.00036950226
0.7511303
-0.00036563309
0.75118154
-0.00035869924
0.75123071
-0.00035056577
0.75127619
-0.00033894913
0.75131884
-0.00032582865
0.75135653
-0.00031023015
0.75139084
-0.00029362738
0.75142161
-0.00027572503
0.75144694
-0.00025625008
0.75146864
-0.00023674287
0.75148617
-0.00021693781
0.75149906
-0.00019655454
0.7515081
-0.00017709227
0.75151414
-0.00015821297
0.75151625
-0.0001401415
0.75151534
-0.00012245929
0.75151233
-0.00010710936
0.75150575
-9.1784053e-05
0.75149833
-7.8946136e-05
0.75148858
-6.6212855e-05
0.75147801
-5.5980565e-05
0.75146569
-4.6411561e-05
0.75145309
-3.8052574e-05
0.75143923
-3.0833758e-05
0.75142553
-2.4674522e-05
0.75141096
-1.9487598e-05
0.75139628
-1.5182526e-05
0.75138222
-1.2269611e-05
0.75136769
-8.8567029e-06
0.75135399
-7.2630493e-06
0.75134059
-5.6050917e-06
0.75132693
-4.4094425e-06
0.75131428
-3.6078157e-06
0.75130204
-3.7393693e-06
0.75129026
-2.9455108e-06
0.75127832
-2.9801049e-06
0.75126806
-3.7997641e-06
0.75125765
-4.16459e-06
0.7512471
-4.0419064e-06
0.75123759
-5.2066152e-06
0.75122851
-5.8318335e-06
0.75121984
-6.4984108e-06
0.75121218
-7.1895385e-06
0.75120369
-7.2903125e-06
0.75119617
-8.5922518e-06
0.751189
-9.2832146e-06
0.75118215
-9.9568212e-06
0.7511756
-1.0607251e-05
0.75116935
-1.1230019e-05
0.75116337
-1.1821692e-05
0.75115764
-1.2379745e-05
0.75115215
-1.2902344e-05
0.75114688
-1.3388241e-05
0.75114183
-1.3836639e-05
0.75113696
-1.4247094e-05
0.75113227
-1.4619453e-05
0.75112775
-1.4953746e-05
0.75112338
-1.525023e-05
0.75111914
-1.5509281e-05
0.75111504
-1.5731519e-05
0.75111105
-1.591768e-05
0.75110717
-1.6068839e-05
0.75110339
-1.6186289e-05
0.75109968
-1.6271876e-05
0.75109606
-1.6327891e-05
0.7510925
-1.6357759e-05
0.75108899
-1.6365289e-05
0.75108553
-1.6356828e-05
0.75108206
-1.6322787e-05
-1.6245822e-05
0.75000129
-7.5709697e-06
0.75000516
-2.2734103e-05
0.75001215
-3.8665535e-05
0.75002104
-5.3663648e-05
0.75003182
-6.9579193e-05
0.75004629
-8.6444258e-05
0.75006268
-0.00010248724
0.75008159
-0.00012012762
0.75010306
-0.00013697124
0.75012713
-0.00015541127
0.7501538
-0.0001736269
0.75018373
-0.00019278268
0.75021572
-0.00021102464
0.750251
-0.00023068146
0.75028835
-0.00024925925
0.75032837
-0.00026904371
0.75037162
-0.00028809505
0.75041742
-0.00030745182
0.75046509
-0.00032512685
0.75051569
-0.00034331186
0.75056847
-0.00035997685
0.7506226
-0.00037547499
0.75067903
-0.00038954697
0.75073687
-0.00040252644
0.75079576
-0.00041234716
0.75085531
-0.00042115576
0.75091509
-0.0004263137
0.75097403
-0.00042941716
0.75103284
-0.00042970048
0.75109039
-0.00042704988
0.75114618
-0.00042141163
0.75119968
-0.00041219843
0.75124982
-0.00040069738
0.75129674
-0.00038586478
0.75134005
-0.00036913111
0.75138002
-0.0003501878
0.75141517
-0.00032878023
0.75144535
-0.00030589701
0.75147166
-0.00028255291
0.75149349
-0.00025857007
0.75151032
-0.0002337644
0.75152351
-0.00020973344
0.75153205
-0.00018563589
0.75153744
-0.00016359255
0.75153816
-0.0001408623
0.75153697
-0.0001212633
0.75153241
-0.00010254569
0.75152604
-8.5412757e-05
0.75151641
-6.931572e-05
0.75150626
-5.6067462e-05
0.75149412
-4.3836426e-05
0.75148087
-3.3165826e-05
0.75146679
-2.3974311e-05
0.75145212
-1.6163617e-05
0.75143707
-9.6242815e-06
0.75142242
-4.8418746e-06
0.75140773
-4.9655151e-07
0.75139254
2.9266437e-06
0.75137814
5.5397747e-06
0.75136342
7.4490038e-06
0.75134966
8.1521385e-06
0.75133631
8.9422354e-06
0.7513234
9.3006047e-06
0.75131036
9.3012318e-06
0.7512984
9.00977e-06
0.75128694
8.4839716e-06
0.75127596
7.173124e-06
0.75126487
6.9237501e-06
0.75125546
5.3689176e-06
0.75124531
4.9442098e-06
0.75123621
3.2720456e-06
0.75122754
2.1774274e-06
0.75121928
1.0774253e-06
0.75121201
-1.3303652e-08
0.75120391
-4.8204185e-07
0.75119675
-2.1224653e-06
0.75118993
-3.1245106e-06
0.75118343
-4.0837733e-06
0.75117721
-4.9963102e-06
0.75117127
-5.8593591e-06
0.75116558
-6.6710911e-06
0.75116013
-7.4304354e-06
0.75115491
-8.1369068e-06
0.75114989
-8.7904614e-06
0.75114506
-9.3913863e-06
0.75114041
-9.940203e-06
0.75113593
-1.0437634e-05
0.7511316
-1.0884529e-05
0.7511274
-1.1281888e-05
0.75112334
-1.1630815e-05
0.75111938
-1.1932605e-05
0.75111554
-1.2188708e-05
0.75111178
-1.2400883e-05
0.75110811
-1.2571155e-05
0.75110451
-1.2702174e-05
0.75110097
-1.2796799e-05
0.75109748
-1.2859819e-05
0.75109403
-1.2893457e-05
0.75109063
-1.2923339e-05
-1.2958606e-05
0.75000185
-8.8187499e-06
0.7500056
-2.6474922e-05
0.75001122
-4.4280571e-05
0.75001989
-6.2337118e-05
0.75003163
-8.1311016e-05
0.75004464
-9.9446928e-05
0.75006134
-0.00011918208
0.75007996
-0.00013874368
0.75010173
-0.00015874471
0.75012551
-0.00017918255
0.75015192
-0.00020003766
0.75018102
-0.00022187327
0.75021343
-0.00024343125
0.75024798
-0.00026523141
0.75028589
-0.00028716798
0.75032596
-0.00030910975
0.75036937
-0.00033149738
0.75041487
-0.00035294122
0.75046417
-0.00037442551
0.75051477
-0.00039390316
0.7505683
-0.0004135059
0.75062397
-0.00043114038
0.75068153
-0.00044709758
0.75074067
-0.00046166141
0.75080104
-0.00047271216
0.75086224
-0.0004823452
0.7509238
-0.0004878738
0.75098524
-0.00049085089
0.75104603
-0.00049047709
0.7511056
-0.00048661487
0.75116339
-0.00047920081
0.75121885
-0.00046765318
0.75127084
-0.00045268055
0.75132007
-0.00043508185
0.75136488
-0.00041393999
0.75140552
-0.00039082074
0.7514417
-0.00036495195
0.75147322
-0.0003374142
0.75149999
-0.00030931861
0.75152141
-0.00027998207
0.75153876
-0.00025111511
0.75155103
-0.00022199411
0.75155905
-0.0001936522
0.75156313
-0.00016766695
0.75156421
-0.00014194152
0.75156147
-0.00011851865
0.75155529
-9.6365638e-05
0.75154727
-7.7389646e-05
0.75153718
-5.9229607e-05
0.75152539
-4.4282144e-05
0.75151225
-3.069171e-05
0.75149806
-1.8973047e-05
0.7514831
-9.0136684e-06
0.75146761
-6.8299893e-07
0.75145243
5.5594384e-06
0.75143652
1.1062689e-05
0.75142065
1.5372409e-05
0.75140554
1.8030657e-05
0.7513901
2.0977389e-05
0.75137562
2.1936089e-05
0.75136094
2.2828167e-05
0.75134732
2.2558873e-05
0.75133359
2.3028037e-05
0.75132097
2.1917254e-05
0.75130887
2.1105287e-05
0.7512973
2.0056971e-05
0.75128564
1.8829146e-05
0.7512757
1.6869414e-05
0.75126504
1.6022017e-05
0.75125607
1.3917389e-05
0.75124636
1.2988205e-05
0.75123769
1.0853903e-05
0.75122943
9.3364544e-06
0.75122158
7.8499558e-06
0.7512147
6.4062093e-06
0.75120697
5.6151974e-06
0.75120018
3.6807002e-06
0.7511937
2.4104145e-06
0.75118751
1.2065911e-06
0.7511816
7.1209467e-08
0.75117594
-9.9474547e-07
0.75117053
-1.991046e-06
0.75116534
-2.9180344e-06
0.75116035
-3.7764718e-06
0.75115556
-4.5674145e-06
0.75115094
-5.2921256e-06
0.75114649
-5.9519907e-06
0.75114218
-6.5484968e-06
0.75113802
-7.0832025e-06
0.75113398
-7.5577661e-06
0.75113005
-7.9739199e-06
0.75112622
-8.3335405e-06
0.75112249
-8.6386476e-06
0.75111884
-8.8915874e-06
0.75111525
-9.0948991e-06
0.75111173
-9.2519989e-06
0.75110825
-9.3653433e-06
0.75110481
-9.4413415e-06
0.75110135
-9.4656512e-06
-9.4431564e-06
0.75000121
-1.0029516e-05
0.75000485
-3.0106675e-05
0.7500109
-5.0327894e-05
0.75001997
-7.1397858e-05
0.75003026
-9.1594671e-05
0.75004419
-0.00011337575
0.75006
-0.00013498742
0.75007832
-0.0001570651
0.75009921
-0.00017962903
0.75012331
-0.00020328142
0.75014949
-0.00022620589
0.75017838
-0.00025076551
0.75021005
-0.00027509848
0.75024514
-0.0003003185
0.75028309
-0.00032510834
0.75032391
-0.00034992146
0.75036759
-0.000375178
0.75041412
-0.00039946218
0.75046282
-0.00042312622
0.75051541
-0.00044648667
0.75056994
-0.00046802982
0.75062682
-0.00048801343
0.7506858
-0.00050607627
0.75074659
-0.00052244238
0.75080942
-0.00053553419
0.75087206
-0.00054498431
0.75093645
-0.00055225331
0.75100084
-0.00055523833
0.75106407
-0.00055369723
0.75112612
-0.00054866311
0.75118578
-0.00053885478
0.75124363
-0.00052549521
0.75129847
-0.00050751181
0.75134974
-0.00048634653
0.75139635
-0.00046054295
0.75143848
-0.00043294923
0.75147582
-0.00040228688
0.75150816
-0.00036974159
0.75153538
-0.00033653477
0.75155689
-0.00030149185
0.75157341
-0.00026763053
0.75158514
-0.0002337186
0.75159296
-0.00020147151
0.75159542
-0.00017012387
0.75159471
-0.00014123307
0.75159066
-0.00011446474
0.7515837
-8.9399745e-05
0.75157425
-6.7943284e-05
0.75156274
-4.7720283e-05
0.75154896
-3.0503016e-05
0.75153448
-1.6209691e-05
0.75151902
-3.5170548e-06
0.75150289
7.1227651e-06
0.75148632
1.5877495e-05
0.75146956
2.2323907e-05
0.75145277
2.784565e-05
0.75143612
3.2020427e-05
0.75141973
3.4419411e-05
0.7514043
3.6407471e-05
0.7513887
3.7534266e-05
0.75137419
3.7336477e-05
0.75135961
3.7140614e-05
0.75134618
3.6456272e-05
0.75133331
3.4780003e-05
0.75132042
3.4000195e-05
0.75130869
3.1786042e-05
0.75129751
3.0003718e-05
0.75128688
2.7504373e-05
0.75127676
2.6135764e-05
0.75126655
2.4131788e-05
0.75125802
2.152276e-05
0.75124874
2.0136202e-05
0.75124049
1.75875e-05
0.75123266
1.5694822e-05
0.7512252
1.386867e-05
0.75121871
1.2117513e-05
0.75121135
1.1048313e-05
0.75120492
8.8620642e-06
0.75119878
7.3639974e-06
0.75119291
5.9541391e-06
0.75118731
4.6325007e-06
0.75118194
3.3983443e-06
0.7511768
2.2503852e-06
0.75117186
1.1869694e-06
0.75116712
2.0620842e-07
0.75116255
-6.9392175e-07
0.75115814
-1.515529e-06
0.75115389
-2.2607542e-06
0.75114977
-2.9317541e-06
0.75114577
-3.5306808e-06
0.75114189
-4.059719e-06
0.7511381
-4.5211035e-06
0.75113441
-4.9171804e-06
0.75113079
-5.2504526e-06
0.75112724
-5.5235895e-06
0.75112374
-5.7396078e-06
0.75112029
-5.9013988e-06
0.75111687
-6.0129136e-06
0.75111349
-6.0821022e-06
-6.1324569e-06
0.75000118
-1.1204504e-05
0.75000531
-3.4232092e-05
0.75001119
-5.6206812e-05
0.75001884
-7.9038761e-05
0.75003006
-0.00010281669
0.7500431
-0.0001264093
0.75005859
-0.00015047334
0.75007658
-0.00017505302
0.75009774
-0.00020077708
0.75012091
-0.00022645462
0.75014738
-0.00025267319
0.75017602
-0.00027939761
0.75020809
-0.00030716572
0.75024246
-0.00033468428
0.75028039
-0.000363029
0.75032131
-0.00039083736
0.75036464
-0.00041850944
0.75041159
-0.00044640607
0.75046211
-0.00047364471
0.75051493
-0.00049930269
0.75057053
-0.00052362064
0.75062933
-0.00054680289
0.75069048
-0.00056722767
0.7507531
-0.00058505364
0.75081741
-0.00059983584
0.75088357
-0.00061113752
0.75095047
-0.00061914829
0.75101694
-0.00062170383
0.75108356
-0.00062030911
0.75114846
-0.00061355341
0.75121154
-0.00060193433
0.75127212
-0.00058607097
0.75132953
-0.00056491093
0.75138313
-0.00053994099
0.75143236
-0.0005097737
0.75147617
-0.0004767469
0.75151478
-0.00044089349
0.75154796
-0.00040291986
0.75157501
-0.000363574
0.75159713
-0.0003236123
0.75161327
-0.00028376722
0.75162427
-0.00024471781
0.75162987
-0.00020706592
0.75163167
-0.0001719196
0.75162952
-0.00013908061
0.7516233
-0.00010824212
0.75161409
-8.0196241e-05
0.75160239
-5.6239295e-05
0.75158925
-3.4576688e-05
0.75157449
-1.5747318e-05
0.75155791
3.6808006e-07
0.75154046
1.3931835e-05
0.75152305
2.4535037e-05
0.75150533
3.3590823e-05
0.75148754
4.0115938e-05
0.75146985
4.553249e-05
0.75145242
4.9453225e-05
0.75143535
5.1480645e-05
0.75141875
5.3007021e-05
0.75140328
5.3004661e-05
0.75138778
5.2833724e-05
0.75137349
5.1433076e-05
0.75135921
5.0730628e-05
0.75134616
4.7829758e-05
0.75133373
4.6431105e-05
0.7513213
4.4210843e-05
0.75131007
4.1237277e-05
0.7512988
3.8769639e-05
0.75128929
3.5653328e-05
0.75127969
3.3730249e-05
0.75126999
3.1228621e-05
0.75126195
2.8173385e-05
0.75125316
2.6386956e-05
0.75124538
2.3480008e-05
0.75123799
2.1266382e-05
0.75123097
1.9152643e-05
0.75122488
1.7143732e-05
0.75121792
1.5843441e-05
0.75121185
1.3449981e-05
0.75120605
1.1766143e-05
0.75120052
1.0189812e-05
0.75119522
8.719157e-06
0.75119015
7.3518687e-06
0.75118527
6.0853352e-06
0.75118059
4.9167732e-06
0.75117608
3.843331e-06
0.75117174
2.8621656e-06
0.75116754
1.9704789e-06
0.75116347
1.1655387e-06
0.75115952
4.4467089e-07
0.75115568
-1.9473796e-07
0.75115194
-7.5528719e-07
0.75114829
-1.2395716e-06
0.75114471
-1.6503169e-06
0.7511412
-1.9901698e-06
0.75113774
-2.2624116e-06
0.75113432
-2.4687277e-06
0.75113092
-2.6152614e-06
0.75112754
-2.6906066e-06
-2.7195984e-06
0.75000174
-1.2342941e-05
0.75000456
-3.7048579e-05
0.75001087
-6.2510069e-05
0.75001888
-8.7045829e-05
0.75002923
-0.0001131553
0.75004194
-0.00013911908
0.75005708
-0.00016560495
0.75007529
-0.0001932684
0.75009547
-0.0002209475
0.75011828
-0.00024925933
0.75014441
-0.00027879894
0.75017335
-0.00030833359
0.75020459
-0.00033840247
0.75023942
-0.00036950983
0.75027732
-0.00040092264
0.75031835
-0.00043186739
0.75036257
-0.00046272485
0.75041
-0.00049382988
0.75046063
-0.00052426783
0.750515
-0.00055367504
0.75057243
-0.0005810419
0.75063215
-0.00060651458
0.75069513
-0.00063020532
0.75076048
-0.0006503988
0.75082782
-0.00066717165
0.7508967
-0.00068000334
0.75096656
-0.00068900444
0.75103679
-0.00069193158
0.75110611
-0.00068962179
0.75117498
-0.00068241322
0.75124202
-0.00066896726
0.75130644
-0.00065049416
0.7513669
-0.00062535842
0.75142266
-0.00059569573
0.75147429
-0.00056139829
0.75152005
-0.00052250414
0.75156014
-0.0004809765
0.75159428
-0.00043706324
0.75162177
-0.0003910613
0.75164324
-0.00034507866
0.75165887
-0.00029938602
0.75166894
-0.00025478545
0.75167385
-0.00021197992
0.75167349
-0.00017155286
0.75166897
-0.00013455863
0.75166084
-0.00010011523
0.75165026
-6.9619068e-05
0.75163657
-4.2547901e-05
0.75162028
-1.8279629e-05
0.75160304
1.4843549e-06
0.7515853
1.8113064e-05
0.75156621
3.3021748e-05
0.75154729
4.3447498e-05
0.75152762
5.3258171e-05
0.75150802
5.9713468e-05
0.75148928
6.4278388e-05
0.75147092
6.7806382e-05
0.75145307
6.9332266e-05
0.7514364
6.9676215e-05
0.75141916
7.0239532e-05
0.7514038
6.8194633e-05
0.75138852
6.6705163e-05
0.75137455
6.4706777e-05
0.75136066
6.1717844e-05
0.75134805
5.9042835e-05
0.75133609
5.6167323e-05
0.75132416
5.3164006e-05
0.75131344
4.9492127e-05
0.75130269
4.6403097e-05
0.75129309
4.3335809e-05
0.7512846
3.9720887e-05
0.75127539
3.7386135e-05
0.75126784
3.3946166e-05
0.75125951
3.1818883e-05
0.75125217
2.8609859e-05
0.75124521
2.6128439e-05
0.75123858
2.3777183e-05
0.75123288
2.1557498e-05
0.75122628
2.0070129e-05
0.75122056
1.7510587e-05
0.75121509
1.5679424e-05
0.75120986
1.3972596e-05
0.75120485
1.2386652e-05
0.75120004
1.091793e-05
0.75119542
9.5627022e-06
0.75119098
8.3172657e-06
0.75118669
7.1780054e-06
0.75118254
6.1414387e-06
0.75117853
5.204239e-06
0.75117464
4.3632399e-06
0.75117086
3.6154006e-06
0.75116717
2.9577657e-06
0.75116356
2.387442e-06
0.75116003
1.9015085e-06
0.75115656
1.4972314e-06
0.75115313
1.1713479e-06
0.75114975
9.2242188e-07
0.7511464
7.4429135e-07
0.75114306
6.4580903e-07
5.9483328e-07
0.7500011
-1.3442667e-05
0.75000501
-4.0949496e-05
0.75000993
-6.7425096e-05
0.75001829
-9.5399186e-05
0.75002832
-0.0001231831
0.75004067
-0.0001514698
0.75005601
-0.00018094037
0.75007321
-0.00021046229
0.75009295
-0.00024068474
0.75011593
-0.00027223623
0.75014106
-0.00030391907
0.75016964
-0.00033690776
0.75020118
-0.00036994446
0.75023581
-0.00040413311
0.75027303
-0.00043813587
0.75031473
-0.00047356894
0.75035981
-0.00050779604
0.75040771
-0.00054172742
0.75045966
-0.00057621638
0.75051445
-0.00060845586
0.7505732
-0.00063978388
0.75063517
-0.00066848327
0.75070016
-0.00069519252
0.75076849
-0.00071871402
0.75083855
-0.00073722959
0.75091108
-0.00075252794
0.7509843
-0.00076221584
0.75105813
-0.00076575959
0.75113243
-0.00076391062
0.75120515
-0.00075513556
0.75127604
-0.00073985094
0.7513436
-0.00071804666
0.75140815
-0.00068990532
0.75146767
-0.00065520924
0.75152202
-0.00061574159
0.75156998
-0.00057045955
0.75161169
-0.0005226783
0.75164684
-0.00047221359
0.75167472
-0.00041893906
0.75169599
-0.00036634182
0.75171086
-0.00031425519
0.7517191
-0.00026302217
0.75172178
-0.00021466403
0.75171948
-0.00016924613
0.7517122
-0.00012727371
0.75170177
-8.9690986e-05
0.75168824
-5.6086272e-05
0.7516716
-2.5911891e-05
0.75165423
-9.0957535e-07
0.75163484
2.087966e-05
0.75161387
3.9079651e-05
0.75159293
5.3964334e-05
0.75157113
6.5236364e-05
0.75155058
7.3814922e-05
0.75153027
8.0018971e-05
0.75150978
8.4759804e-05
0.75149046
8.7129056e-05
0.75147119
8.8602063e-05
0.75145324
8.7624665e-05
0.75143665
8.6825526e-05
0.75141964
8.5200891e-05
0.75140402
8.2323672e-05
0.75138978
7.894554e-05
0.75137571
7.5796824e-05
0.75136296
7.1784622e-05
0.75135093
6.8202864e-05
0.75133957
6.4526491e-05
0.75132824
6.081778e-05
0.75131812
5.6526035e-05
0.75130857
5.289328e-05
0.75129894
4.9349744e-05
0.75129101
4.5318079e-05
0.75128235
4.2618849e-05
0.75127531
3.8860172e-05
0.75126748
3.6454168e-05
0.75126061
3.3001298e-05
0.7512541
3.0306449e-05
0.7512479
2.7768293e-05
0.751242
2.5985919e-05
0.75123638
2.3153241e-05
0.75123101
2.1069355e-05
0.75122587
1.9128842e-05
0.75122096
1.7327013e-05
0.75121624
1.5659086e-05
0.75121171
1.4120311e-05
0.75120735
1.2706072e-05
0.75120314
1.1411967e-05
0.75119908
1.0233833e-05
0.75119514
9.1677512e-06
0.75119132
8.210029e-06
0.7511876
7.3571806e-06
0.75118397
6.6058793e-06
0.75118042
5.9529542e-06
0.75117694
5.3952599e-06
0.75117353
4.9299447e-06
0.75117015
4.5536944e-06
0.75116682
4.265077e-06
0.75116351
4.057935e-06
0.75116022
3.9377257e-06
3.8599881e-06
0.75000166
-1.4500432e-05
0.75000424
-4.3524977e-05
0.75001016
-7.3334909e-05
0.75001763
-0.00010287355
0.75002732
-0.00013286595
0.75003988
-0.00016401906
0.75005417
-0.00019522842
0.75007088
-0.00022717538
0.75009073
-0.00026052321
0.75011261
-0.00029411291
0.75013785
-0.00032915831
0.75016539
-0.00036444305
0.75019657
-0.0004011155
0.75023092
-0.00043848277
0.75026919
-0.00047640543
0.75031032
-0.000514692
0.75035502
-0.00055249133
0.75040459
-0.00059129243
0.75045669
-0.00062831444
0.75051375
-0.00066550818
0.75057393
-0.00069995483
0.75063832
-0.00073287022
0.75070614
-0.00076301036
0.75077652
-0.00078908104
0.75085086
-0.00081156475
0.75092686
-0.0008285295
0.75100392
-0.00083926823
0.7510831
-0.00084493379
0.75116116
-0.00084196526
0.75123898
-0.00083294514
0.75131495
-0.00081582265
0.75138747
-0.0007905566
0.75145551
-0.00075794015
0.75151932
-0.00071901238
0.75157623
-0.00067265044
0.75162733
-0.00062156106
0.75167089
-0.00056623119
0.75170656
-0.00050788109
0.75173543
-0.00044780071
0.75175577
-0.00038668097
0.75176907
-0.0003275565
0.75177578
-0.00026973344
0.75177649
-0.00021536448
0.75177125
-0.00016400518
0.75176199
-0.00011801789
0.75174826
-7.5956992e-05
0.75173137
-3.9200618e-05
0.75171202
-6.5603295e-06
0.75169083
2.0278638e-05
0.75166837
4.3343074e-05
0.75164511
6.233002e-05
0.75162209
7.6986133e-05
0.75159904
8.8288159e-05
0.75157623
9.6620438e-05
0.75155328
0.00010296312
0.75153216
0.0001058753
0.75151119
0.00010810101
0.75149164
0.00010814784
0.75147237
0.00010689753
0.7514546
0.00010459912
0.75143772
0.00010207251
0.75142234
9.7703489e-05
0.75140723
9.405883e-05
0.75139296
9.0073644e-05
0.75137948
8.5261779e-05
0.75136736
8.0319927e-05
0.75135536
7.6528283e-05
0.75134524
7.0944416e-05
0.75133454
6.7224989e-05
0.75132504
6.2403697e-05
0.75131608
5.8313395e-05
0.75130702
5.4375057e-05
0.75129964
5.0003012e-05
0.7512915
4.7010511e-05
0.75128497
4.2999138e-05
0.7512776
4.0375424e-05
0.75127118
3.6734905e-05
0.75126509
3.387833e-05
0.75125989
3.1200813e-05
0.75125376
2.9298493e-05
0.75124849
2.6362789e-05
0.75124345
2.4190828e-05
0.75123862
2.2175555e-05
0.75123399
2.0310972e-05
0.75122955
1.8591272e-05
0.75122527
1.7010922e-05
0.75122114
1.5564704e-05
0.75121715
1.4247744e-05
0.75121328
1.3055514e-05
0.75120953
1.1983809e-05
0.75120588
1.1028699e-05
0.75120232
1.0186472e-05
0.75119883
9.4536314e-06
0.75119541
8.8267641e-06
0.75119205
8.3029263e-06
0.75118873
7.8783796e-06
0.75118545
7.552648e-06
0.75118219
7.3169528e-06
0.75117894
7.1957781e-06
7.1534641e-06
0.75000161
-1.5512113e-05
0.75000466
-4.6562595e-05
0.75000974
-7.8418252e-05
0.75001691
-0.00011003844
0.75002682
-0.00014276352
0.75003772
-0.00017491662
0.7500521
-0.00020960893
0.75006827
-0.00024333827
0.75008754
-0.00027978483
0.75010943
-0.00031600399
0.7501335
-0.00035322452
0.75016171
-0.00039264325
0.75019241
-0.0004318173
0.75022639
-0.00047246173
0.75026383
-0.00051383931
0.7503055
-0.00055635378
0.75035096
-0.00059794502
0.75040035
-0.00064068
0.75045439
-0.00068234754
0.75051194
-0.00072305454
0.75057422
-0.00076222586
0.75064055
-0.00079920145
0.75071079
-0.00083324693
0.75078528
-0.00086356532
0.75086244
-0.00088871225
0.75094234
-0.00090842591
0.75102554
-0.00092245901
0.75110882
-0.00092821751
0.75119308
-0.00092621259
0.75127604
-0.00091590679
0.75135659
-0.00089636382
0.75143474
-0.00086869784
0.7515087
-0.00083190063
0.75157616
-0.00078646691
0.75163791
-0.00073439437
0.7516913
-0.00067495027
0.75173691
-0.00061184134
0.75177436
-0.00054532981
0.75180233
-0.00047576091
0.75182274
-0.00040708659
0.75183475
-0.00033956571
0.75183892
-0.00027390326