/*--------------------------------*- C++ -*----------------------------------*\
| =========                 |                                                 |
| \\      /  F ield         | OpenFOAM: The Open Source CFD Toolbox           |
|  \\    /   O peration     | Version:  2406                                  |
|   \\  /    A nd           | Website:  www.openfoam.com                      |
|    \\/     M anipulation  |                                                 |
\*---------------------------------------------------------------------------*/
FoamFile
{
    version     2.0;
    format      ascii;
    arch        "LSB;label=32;scalar=64";
    class       volVectorField;
    location    "700";
    object      U;
}
// * * * * * * * * * * * * * * * * * * * * * * * * * * * * * * * * * * * * * //

dimensions      [0 1 -1 0 0 0 0];

internalField   nonuniform List<vector> 
16045
(
(30.000021 -2.990546e-05 0)
(30.000161 -0.00010525227 0)
(30.000412 -0.00019899072 0)
(30.000767 -0.00030786328 0)
(30.001219 -0.00042951787 0)
(30.001768 -0.00056296809 0)
(30.002417 -0.0007076198 -9.3198766e-25)
(30.003166 -0.00086292051 0)
(30.004015 -0.0010283736 0)
(30.004965 -0.001203536 0)
(30.006016 -0.0013879714 0)
(30.007169 -0.0015812028 0)
(30.008423 -0.0017826823 7.9379234e-25)
(30.009778 -0.0019917573 0)
(30.011233 -0.0022076539 0)
(30.012786 -0.0024294484 0)
(30.014434 -0.0026560518 0)
(30.016175 -0.0028861868 -2.9444217e-25)
(30.018002 -0.0031183883 -2.7773208e-25)
(30.019911 -0.0033509843 0)
(30.021894 -0.0035821153 0)
(30.023942 -0.003809727 0)
(30.026046 -0.0040316079 0)
(30.028194 -0.0042454009 0)
(30.030374 -0.0044486612 2.8445377e-25)
(30.032571 -0.0046388891 0)
(30.03477 -0.0048136093 1.7227369e-25)
(30.036955 -0.0049704184 9.5812281e-27)
(30.03911 -0.0051070785 6.6878484e-27)
(30.041217 -0.005221573 -6.3531433e-27)
(30.043261 -0.0053122008 2.2359733e-27)
(30.045223 -0.0053776274 2.7758732e-27)
(30.047089 -0.0054169574 -5.3455279e-27)
(30.048844 -0.0054297771 1.4791224e-25)
(30.050476 -0.0054161724 -1.2693926e-26)
(30.051973 -0.0053767492 -2.0670385e-27)
(30.053328 -0.0053126116 1.4759779e-26)
(30.054534 -0.0052253281 0)
(30.055587 -0.0051168772 1.9663105e-26)
(30.056486 -0.0049895741 3.0798723e-25)
(30.057233 -0.0048459937 0)
(30.057832 -0.0046888751 0)
(30.058287 -0.0045210326 3.6996856e-25)
(30.058607 -0.004345273 0)
(30.058801 -0.004164311 3.8195758e-25)
(30.058878 -0.0039807067 0)
(30.058849 -0.0037968081 0)
(30.058725 -0.0036147147 0)
(30.058519 -0.0034362505 0)
(30.05824 -0.0032629532 0)
(30.057901 -0.0030960749 0)
(30.05751 -0.0029365907 0)
(30.057079 -0.0027852181 0)
(30.056615 -0.0026424381 0)
(30.056127 -0.0025085234 0)
(30.055622 -0.0023835648 0)
(30.055107 -0.002267501 0)
(30.054586 -0.002160146 -2.8216211e-25)
(30.054066 -0.0020612132 0)
(30.053549 -0.0019703408 0)
(30.053039 -0.0018871128 0)
(30.052538 -0.0018110748 0)
(30.05205 -0.0017417523 0)
(30.051575 -0.0016786616 0)
(30.051115 -0.0016213208 0)
(30.05067 -0.0015692578 0)
(30.050241 -0.0015220173 -1.8021816e-25)
(30.049829 -0.0014791634 0)
(30.049433 -0.0014402849 0)
(30.049054 -0.0014049966 0)
(30.04869 -0.0013729399 0)
(30.048343 -0.0013437837 0)
(30.04801 -0.0013172232 0)
(30.047692 -0.0012929802 0)
(30.047388 -0.0012708006 0)
(30.047097 -0.0012504543 0)
(30.046819 -0.0012317326 0)
(30.046554 -0.0012144473 0)
(30.046299 -0.0011984287 0)
(30.046056 -0.0011835237 0)
(30.045822 -0.001169595 0)
(30.045599 -0.0011565184 0)
(30.045384 -0.0011441828 0)
(30.045178 -0.0011324875 0)
(30.044979 -0.0011213432 0)
(30.044788 -0.0011106679 0)
(30.044603 -0.00110039 0)
(30.044425 -0.0010904432 0)
(30.044253 -0.001080771 0)
(30.044085 -0.0010713203 0)
(30.043923 -0.0010620486 0)
(30.043765 -0.0010529158 0)
(30.043612 -0.0010438962 0)
(30.043462 -0.0010349643 0)
(30.043315 -0.0010261262 0)
(30.043171 -0.0010173538 0)
(30.043033 -0.0010088133 0)
(30.042887 -0.0010002054 0)
(30.042779 -0.00099326831 0)
(30.042581 -0.00098445821 0)
(30.000014 -8.8248454e-05 0)
(30.000126 -0.00028511863 0)
(30.000349 -0.00050583247 -9.8202877e-25)
(30.000681 -0.00074499677 0)
(30.001113 -0.00099913931 0)
(30.001643 -0.0012672565 0)
(30.002274 -0.0015488662 9.3192422e-25)
(30.003005 -0.0018433579 0)
(30.003838 -0.0021500925 9.0129049e-25)
(30.004772 -0.0024684472 0)
(30.005808 -0.0027977336 0)
(30.006946 -0.0031371118 0)
(30.008187 -0.0034855376 -7.9372585e-25)
(30.00953 -0.003841721 0)
(30.010975 -0.0042040907 0)
(30.012519 -0.0045707595 0)
(30.014161 -0.0049395007 -9.8141854e-25)
(30.015896 -0.0053077236 3.1951039e-25)
(30.017722 -0.0056724776 5.7209575e-25)
(30.019632 -0.0060304506 -5.3463272e-25)
(30.021619 -0.0063780009 0)
(30.023675 -0.0067111871 0)
(30.025791 -0.0070258383 7.8218301e-25)
(30.027955 -0.0073176228 3.4059589e-25)
(30.030154 -0.0075821577 -2.8442157e-25)
(30.032375 -0.0078151151 0)
(30.034602 -0.0080123659 -1.8183478e-25)
(30.036819 -0.008170115 0)
(30.039009 -0.0082850603 0)
(30.041155 -0.008354528 0)
(30.043239 -0.0083766182 -9.655109e-27)
(30.045244 -0.0083503097 9.6544797e-27)
(30.047154 -0.008275553 0)
(30.048954 -0.0081533147 -1.0605928e-25)
(30.050629 -0.0079855807 -4.1835116e-26)
(30.052169 -0.0077753187 0)
(30.053563 -0.0075263893 -3.3649681e-26)
(30.054806 -0.0072434187 -3.3734811e-27)
(30.055892 -0.0069316354 3.7021232e-26)
(30.056821 -0.0065966841 6.6541693e-27)
(30.057593 -0.0062444268 0)
(30.058212 -0.0058807441 0)
(30.058683 -0.0055113462 7.1524169e-27)
(30.059014 -0.0051416104 0)
(30.059214 -0.0047764423 -3.8193356e-25)
(30.059293 -0.0044201757 0)
(30.059263 -0.0040765041 3.8943308e-25)
(30.059135 -0.0037484497 0)
(30.058921 -0.0034383602 0)
(30.058632 -0.0031479356 -3.7382472e-25)
(30.058281 -0.002878272 3.6536094e-25)
(30.057878 -0.0026299225 0)
(30.057432 -0.0024029668 0)
(30.056954 -0.0021970851 0)
(30.056451 -0.0020116323 -1.5745103e-25)
(30.055932 -0.0018457086 -1.5210636e-25)
(30.055402 -0.0016982258 0)
(30.054867 -0.0015679669 2.8215228e-25)
(30.054332 -0.0014536347 0)
(30.053802 -0.001353898 0)
(30.05328 -0.0012674248 0)
(30.052768 -0.0011929113 -2.353569e-25)
(30.052269 -0.001129103 0)
(30.051784 -0.0010748106 0)
(30.051314 -0.0010289206 0)
(30.050861 -0.00099040122 0)
(30.050425 -0.00095830599 1.8021178e-25)
(30.050006 -0.0009317735 0)
(30.049604 -0.00091002661 0)
(30.049219 -0.00089236883 0)
(30.04885 -0.00087817988 -1.4421011e-25)
(30.048498 -0.00086691096 0)
(30.048161 -0.00085807884 0)
(30.047839 -0.00085126091 0)
(30.047532 -0.00084608854 0)
(30.047238 -0.00084224229 0)
(30.046958 -0.00083944592 0)
(30.04669 -0.000837462 0)
(30.046434 -0.00083608648 0)
(30.046188 -0.00083514487 0)
(30.045954 -0.00083448773 0)
(30.045729 -0.00083398753 0)
(30.045513 -0.00083353548 0)
(30.045305 -0.00083303899 0)
(30.045106 -0.00083241987 0)
(30.044914 -0.00083161179 0)
(30.044729 -0.00083055949 0)
(30.04455 -0.00082921628 0)
(30.044378 -0.00082754474 0)
(30.04421 -0.00082551486 0)
(30.044048 -0.00082310678 0)
(30.04389 -0.00082030919 0)
(30.043736 -0.00081712527 0)
(30.043585 -0.00081356964 0)
(30.043439 -0.00080969078 0)
(30.043294 -0.00080554199 0)
(30.043156 -0.00080132934 0)
(30.043009 -0.00079709789 0)
(30.042901 -0.00079397497 0)
(30.04269 -0.00079076496 0)
(30.000012 -0.00014054927 0)
(30.000115 -0.00042808606 0)
(30.000332 -0.00072552129 9.8202034e-25)
(30.000658 -0.0010323344 0)
(30.001086 -0.0013482075 0)
(30.001613 -0.0016737643 0)
(30.00224 -0.0020095775 4.6585327e-25)
(30.002968 -0.002355789 -4.6583578e-25)
(30.003797 -0.0027122639 -9.0126524e-25)
(30.004728 -0.0030786882 0)
(30.005761 -0.0034545258 0)
(30.006898 -0.0038389563 0)
(30.008138 -0.0042308303 8.0811652e-25)
(30.009482 -0.004628643 0)
(30.010928 -0.005030502 0)
(30.012476 -0.0054340998 3.6592225e-25)
(30.014123 -0.0058366921 1.0036675e-24)
(30.015866 -0.0062350904 0)
(30.017703 -0.0066256662 -5.8647461e-25)
(30.019626 -0.0070043753 5.3459714e-25)
(30.021629 -0.0073667943 -2.3321044e-25)
(30.023705 -0.0077081835 4.7116219e-25)
(30.025844 -0.0080235802 2.2034205e-25)
(30.028034 -0.0083079017 3.5085813e-25)
(30.030262 -0.0085560843 0)
(30.032515 -0.0087632447 4.8177219e-25)
(30.034777 -0.0089248464 0)
(30.037031 -0.0090368871 2.7009128e-25)
(30.039259 -0.0090960801 0)
(30.041444 -0.0091000381 6.5949798e-26)
(30.043567 -0.0090474173 -2.1571926e-26)
(30.04561 -0.0089380501 0)
(30.047556 -0.008773017 -3.3056476e-26)
(30.049389 -0.0085546758 3.3054731e-26)
(30.051094 -0.0082866223 0)
(30.052659 -0.0079736032 -2.3234284e-25)
(30.054075 -0.0076213551 -6.9176419e-26)
(30.055333 -0.0072364076 6.9174685e-26)
(30.056429 -0.0068258456 0)
(30.057362 -0.0063970406 8.4206257e-27)
(30.058134 -0.0059573928 3.6066668e-25)
(30.058746 -0.0055140737 -3.7489773e-25)
(30.059207 -0.0050738008 -3.7708291e-25)
(30.059524 -0.0046426512 7.8547856e-25)
(30.059706 -0.0042259246 3.9678417e-25)
(30.059765 -0.0038280487 0)
(30.059713 -0.0034525434 4.0346409e-25)
(30.059561 -0.0031020221 -3.9264594e-25)
(30.059323 -0.0027782326 -1.8979198e-25)
(30.059011 -0.0024821296 5.6362096e-25)
(30.058636 -0.0022139636 -3.6536164e-25)
(30.05821 -0.0019733852 0)
(30.057744 -0.0017595505 0)
(30.057245 -0.0015712299 0)
(30.056724 -0.0014069054 0)
(30.056188 -0.0012648628 1.5760225e-25)
(30.055643 -0.0011432703 6.3495767e-27)
(30.055095 -0.0010402455 4.3194578e-25)
(30.054548 -0.00095391 0)
(30.054008 -0.00088243411 0)
(30.053477 -0.00082406713 0)
(30.052958 -0.00077716214 2.353594e-25)
(30.052453 -0.00074019016 -2.2433129e-25)
(30.051963 -0.00071174968 0)
(30.051489 -0.00069056971 -2.0180881e-25)
(30.051033 -0.00067550798 0)
(30.050595 -0.00066554837 0)
(30.050174 -0.00065979346 0)
(30.049771 -0.00065745763 0)
(30.049385 -0.00065785811 0)
(30.049016 -0.00066040633 1.4421104e-25)
(30.048664 -0.00066459794 0)
(30.048327 -0.00067000479 -1.281214e-25)
(30.048006 -0.00067626523 0)
(30.0477 -0.00068307672 0)
(30.047407 -0.00069018768 0)
(30.047128 -0.00069739073 0)
(30.046861 -0.00070451632 0)
(30.046606 -0.00071142677 0)
(30.046362 -0.00071801113 0)
(30.046128 -0.0007241803 0)
(30.045904 -0.00072986388 0)
(30.04569 -0.00073500627 0)
(30.045483 -0.0007395652 0)
(30.045285 -0.00074350819 0)
(30.045094 -0.00074681234 0)
(30.04491 -0.00074946068 0)
(30.044733 -0.00075144327 0)
(30.044561 -0.00075275438 0)
(30.044394 -0.00075339594 0)
(30.044233 -0.0007533756 0)
(30.044076 -0.00075271147 0)
(30.043923 -0.00075143157 0)
(30.043773 -0.00074957956 0)
(30.043627 -0.00074722693 0)
(30.043483 -0.00074446054 0)
(30.043345 -0.00074149076 0)
(30.043198 -0.00073839492 0)
(30.043089 -0.00073608263 0)
(30.042886 -0.00073340579 0)
(30.000012 -0.000186804 0)
(30.00011 -0.00056311916 0)
(30.000317 -0.0009473705 0)
(30.000633 -0.0013425916 0)
(30.001049 -0.0017498683 0)
(30.001563 -0.0021698517 0)
(30.002176 -0.0026030469 0)
(30.002891 -0.0030496291 0)
(30.003706 -0.0035094336 0)
(30.004624 -0.0039820132 0)
(30.005645 -0.0044666181 0)
(30.006771 -0.0049621388 0)
(30.008 -0.005467051 -1.2272824e-24)
(30.009335 -0.0059793689 -3.9868042e-25)
(30.010775 -0.0064966043 0)
(30.012319 -0.0070157289 -2.1432126e-24)
(30.013965 -0.0075331441 6.7948657e-25)
(30.01571 -0.0080446706 -1.5841113e-24)
(30.017552 -0.008545547 8.9278955e-25)
(30.019486 -0.0090304588 0)
(30.021504 -0.0094935892 1.0075371e-24)
(30.0236 -0.009928701 -4.467133e-25)
(30.025763 -0.010329252 -7.9365618e-25)
(30.027983 -0.010688539 1.2976139e-26)
(30.030246 -0.010999876 0)
(30.032539 -0.011256808 -5.9025286e-25)
(30.034846 -0.01145334 4.9061804e-25)
(30.037148 -0.011584186 -2.7006942e-25)
(30.039429 -0.011645014 0)
(30.041668 -0.011632697 -1.9241686e-27)
(30.043847 -0.01154551 1.8471455e-26)
(30.045946 -0.011383306 4.520755e-26)
(30.047946 -0.01114762 1.8986227e-25)
(30.049832 -0.010841702 0)
(30.051586 -0.01047047 0)
(30.053196 -0.010040381 2.3232666e-25)
(30.05465 -0.0095592186 0)
(30.055942 -0.0090358152 -7.8000111e-26)
(30.057065 -0.0084797255 7.7998961e-26)
(30.058018 -0.0079008638 -3.426637e-25)
(30.058802 -0.0073091466 1.1490111e-26)
(30.059421 -0.0067141484 -3.978096e-25)
(30.059882 -0.0061247962 7.9356302e-25)
(30.060193 -0.0055491242 2.1873018e-26)
(30.060365 -0.0049940925 4.1772763e-25)
(30.06041 -0.0044654728 8.1566786e-25)
(30.06034 -0.0039678025 1.8566354e-26)
(30.060169 -0.003504402 3.9264068e-25)
(30.05991 -0.0030774325 -7.8939321e-25)
(30.059575 -0.0026880047 0)
(30.059178 -0.0023362998 0)
(30.058729 -0.0020217156 -7.3159619e-25)
(30.05824 -0.0017430103 0)
(30.057721 -0.0014984452 0)
(30.05718 -0.0012859181 0)
(30.056624 -0.0011030821 0)
(30.056062 -0.00094745039 0)
(30.055498 -0.00081648258 -2.8632792e-25)
(30.054937 -0.00070765725 -6.8493049e-25)
(30.054383 -0.00061852334 3.9650617e-25)
(30.05384 -0.00054674533 -2.4956027e-25)
(30.053311 -0.00049012952 -2.3712004e-25)
(30.052796 -0.00044664396 2.2433265e-25)
(30.052298 -0.00041442663 0)
(30.051817 -0.00039179156 -3.5219656e-28)
(30.051355 -0.00037722373 -1.9136702e-25)
(30.050911 -0.00036937526 0)
(30.050485 -0.00036705598 0)
(30.050078 -0.00036922394 0)
(30.049689 -0.00037497226 0)
(30.049317 -0.00038351889 0)
(30.048962 -0.00039419341 0)
(30.048624 -0.00040642546 1.2812155e-25)
(30.048301 -0.00041973313 -1.2038851e-25)
(30.047993 -0.00043371191 0)
(30.047699 -0.00044802569 0)
(30.047419 -0.00046239673 0)
(30.047151 -0.00047659746 0)
(30.046895 -0.00049044271 0)
(30.046651 -0.00050378293 0)
(30.046417 -0.00051649826 0)
(30.046193 -0.00052849373 0)
(30.045978 -0.00053969525 0)
(30.045772 -0.000550046 0)
(30.045573 -0.00055950338 0)
(30.045383 -0.00056803584 0)
(30.045199 -0.00057562112 0)
(30.045021 -0.00058224476 0)
(30.04485 -0.00058790032 0)
(30.044683 -0.00059258924 0)
(30.044522 -0.00059632232 0)
(30.044365 -0.00059912032 0)
(30.044212 -0.00060101739 0)
(30.044063 -0.0006020622 0)
(30.043917 -0.0006023301 0)
(30.043772 -0.00060191598 0)
(30.043634 -0.00060099953 0)
(30.043487 -0.00059969414 0)
(30.043378 -0.00059859481 0)
(30.043163 -0.00059707284 0)
(30.000011 -0.00023071657 0)
(30.000105 -0.00069411361 0)
(30.000306 -0.0011637438 0)
(30.000613 -0.0016425905 0)
(30.001021 -0.0021318258 0)
(30.001526 -0.0026321086 -9.7637619e-25)
(30.00213 -0.0031441013 0)
(30.002836 -0.0036682587 0)
(30.003644 -0.0042046581 0)
(30.004554 -0.0047529963 9.0666952e-25)
(30.005569 -0.0053125757 -8.8327276e-25)
(30.006688 -0.0058822483 1.7148445e-24)
(30.007914 -0.0064603437 8.1787078e-25)
(30.009248 -0.0070446163 0)
(30.010688 -0.0076321911 7.6488593e-25)
(30.012236 -0.0082195277 1.0836253e-24)
(30.013889 -0.0088023777 -6.5970319e-25)
(30.015647 -0.0093757778 2.9091647e-24)
(30.017505 -0.009934052 1.2130145e-24)
(30.01946 -0.01047085 8.5613967e-25)
(30.021505 -0.010979208 -7.4173452e-25)
(30.023633 -0.011451656 9.2694279e-25)
(30.025835 -0.011880357 0)
(30.028099 -0.012257299 -7.0429593e-25)
(30.030413 -0.012574509 6.0909943e-25)
(30.032762 -0.012824335 -9.9739512e-25)
(30.035128 -0.012999721 -3.8207443e-25)
(30.037495 -0.013094539 0)
(30.039843 -0.013103892 0)
(30.042152 -0.013024423 -4.8366781e-27)
(30.0444 -0.012854576 7.4293644e-26)
(30.046566 -0.012594803 -7.2934124e-26)
(30.048632 -0.012247696 -4.3641787e-25)
(30.050578 -0.011818009 -2.6479393e-25)
(30.052387 -0.011312583 2.0763738e-25)
(30.054044 -0.010740164 1.8261518e-26)
(30.055537 -0.0101111 -1.3212094e-25)
(30.056858 -0.0094369731 -3.1895098e-25)
(30.058 -0.0087301473 0)
(30.058963 -0.0080032985 3.681384e-25)
(30.059748 -0.0072689349 4.0049131e-25)
(30.060359 -0.0065389578 1.5732875e-24)
(30.060803 -0.0058242755 -7.935282e-25)
(30.061091 -0.005134504 2.6058144e-26)
(30.061234 -0.0044777523 -2.4927107e-24)
(30.061246 -0.0038605127 2.3007998e-26)
(30.061139 -0.003287629 -8.1142623e-25)
(30.060929 -0.0027623521 8.2179133e-25)
(30.060629 -0.0022864509 7.8938202e-25)
(30.060254 -0.0018603763 0)
(30.059817 -0.0014834453 7.6698382e-25)
(30.059331 -0.0011540444 1.4750035e-24)
(30.058805 -0.00086983039 7.1812318e-25)
(30.058252 -0.00062792162 6.9160458e-25)
(30.057679 -0.00042507211 0)
(30.057096 -0.00025782419 0)
(30.056507 -0.00012263675 -6.0861913e-25)
(30.05592 -1.5992308e-05 0)
(30.055339 6.5522055e-05 5.5075865e-25)
(30.054768 0.00012515385 -2.6233138e-25)
(30.05421 0.00016594077 2.49559e-25)
(30.053667 0.00019068387 2.3711857e-25)
(30.053142 0.00020193273 -2.2515277e-25)
(30.052634 0.00020198161 -2.1329775e-25)
(30.052146 0.0001928726 2.021605e-25)
(30.051678 0.00017640662 3.8028858e-28)
(30.051229 0.00015415633 0)
(30.0508 0.00012748179 -1.7055289e-25)
(30.05039 9.7549113e-05 0)
(30.049998 6.5348897e-05 0)
(30.049626 3.1714016e-05 0)
(30.04927 -2.6620278e-06 0)
(30.048932 -3.7208259e-05 0)
(30.048609 -7.146044e-05 1.2038854e-25)
(30.048302 -0.00010504608 -1.1261138e-25)
(30.048009 -0.00013767162 0)
(30.04773 -0.00016910967 0)
(30.047463 -0.00019918821 0)
(30.047209 -0.00022778083 0)
(30.046966 -0.00025479841 0)
(30.046733 -0.0002801821 0)
(30.046511 -0.00030389772 0)
(30.046298 -0.00032593058 0)
(30.046093 -0.00034628124 0)
(30.045897 -0.00036496122 0)
(30.045708 -0.00038199026 0)
(30.045525 -0.00039739383 0)
(30.045349 -0.00041120291 0)
(30.045179 -0.00042345326 0)
(30.045014 -0.0004341867 0)
(30.044854 -0.00044345083 0)
(30.044699 -0.00045130097 0)
(30.044547 -0.00045780086 0)
(30.044399 -0.0004630269 0)
(30.044254 -0.00046707226 0)
(30.044111 -0.00047005552 0)
(30.043973 -0.00047212448 0)
(30.043827 -0.00047346917 0)
(30.043717 -0.00047427051 0)
(30.043512 -0.00047478902 0)
(30.000011 -0.00027303854 0)
(30.000102 -0.0008207091 0)
(30.000297 -0.0013735678 0)
(30.000596 -0.0019348467 0)
(30.000995 -0.0025065694 0)
(30.001489 -0.0030901491 9.7635951e-25)
(30.002083 -0.0036867858 -9.741052e-25)
(30.002777 -0.0042973482 9.5813983e-25)
(30.003572 -0.0049222197 0)
(30.004471 -0.0055612763 -9.066424e-25)
(30.005474 -0.0062138781 1.7791983e-24)
(30.006584 -0.0068788177 -3.4554311e-24)
(30.007802 -0.0075542485 0)
(30.009129 -0.0082376223 -2.0168149e-24)
(30.010566 -0.0089256259 -7.4757882e-25)
(30.012114 -0.0096141331 3.7658511e-25)
(30.013771 -0.010298163 0)
(30.015538 -0.010971859 2.5700691e-26)
(30.01741 -0.01162849 -1.507729e-24)
(30.019385 -0.012260484 3.1855688e-25)
(30.021457 -0.01285951 -2.0974092e-24)
(30.023619 -0.013416589 -1.3693714e-24)
(30.025862 -0.013922265 2.1268343e-24)
(30.028175 -0.014366828 0)
(30.030545 -0.014740583 -1.713013e-24)
(30.032956 -0.015034184 8.5735213e-25)
(30.035392 -0.015238986 7.8667462e-25)
(30.037833 -0.015347441 1.1072384e-25)
(30.040258 -0.0153535 -5.5829861e-26)
(30.042647 -0.015252987 -1.0954293e-26)
(30.044976 -0.015043943 -4.9927774e-26)
(30.047223 -0.014726892 -1.0381426e-25)
(30.049365 -0.014305001 4.7019197e-25)
(30.051382 -0.013784133 3.2305481e-25)
(30.053256 -0.013172739 0)
(30.054968 -0.01248163 -1.3822887e-25)
(30.056508 -0.011723595 1.382262e-25)
(30.057864 -0.010912919 6.5392708e-25)
(30.059031 -0.010064819 0)
(30.060007 -0.0091948289 -1.7589966e-25)
(30.060794 -0.0083182044 -1.7711507e-24)
(30.061396 -0.0074493626 3.3239401e-26)
(30.061824 -0.00660141 0)
(30.062087 -0.0057857759 3.0747048e-26)
(30.062198 -0.005011969 -5.7939347e-26)
(30.062174 -0.0042874574 -1.0503434e-24)
(30.062027 -0.003617659 2.1172304e-25)
(30.061775 -0.0030060324 -8.2177509e-25)
(30.061433 -0.0024542438 0)
(30.061016 -0.0019623814 1.6122552e-24)
(30.060538 -0.0015292055 -7.6697771e-25)
(30.060012 -0.001152405 -2.2571771e-24)
(30.05945 -0.00082885036 -7.1812106e-25)
(30.058863 -0.00055483021 -6.9160383e-25)
(30.05826 -0.00032625881 0)
(30.057648 -0.00013886233 6.4298252e-25)
(30.057035 1.1672936e-05 1.2223565e-24)
(30.056426 0.00012958366 0)
(30.055826 0.00021893529 5.5637731e-25)
(30.055239 0.00028355967 0)
(30.054667 0.0003270095 0)
(30.054112 0.00035253483 -2.3778444e-25)
(30.053577 0.00036307106 2.2514669e-25)
(30.053062 0.00036124203 1.4199048e-28)
(30.052567 0.00034936718 -2.0158582e-25)
(30.052094 0.00032947796 1.9098059e-25)
(30.051641 0.00030333722 -1.799745e-25)
(30.051209 0.00027246108 1.7054912e-25)
(30.050798 0.00023814075 -1.6033248e-25)
(30.050405 0.0002014671 0)
(30.050032 0.00016335127 -1.4254247e-25)
(30.049676 0.00012454818 0)
(30.049338 8.567485e-05 0)
(30.049015 4.7229921e-05 0)
(30.048709 9.6103943e-06 1.1261002e-25)
(30.048417 -2.6873112e-05 -1.0513161e-25)
(30.048139 -6.1981942e-05 0)
(30.047873 -9.5537689e-05 0)
(30.04762 -0.00012741056 0)
(30.047379 -0.0001575106 0)
(30.047147 -0.00018578004 0)
(30.046926 -0.00021218699 0)
(30.046714 -0.00023671967 0)
(30.046511 -0.00025938113 0)
(30.046316 -0.00028018511 0)
(30.046128 -0.00029915289 0)
(30.045947 -0.00031631171 0)
(30.045772 -0.00033169381 0)
(30.045603 -0.0003453366 0)
(30.04544 -0.00035728231 0)
(30.045281 -0.00036757838 0)
(30.045126 -0.00037627764 0)
(30.044975 -0.00038344024 0)
(30.044828 -0.00038913622 0)
(30.044684 -0.00039345073 0)
(30.044541 -0.00039648452 0)
(30.044404 -0.00039837103 0)
(30.044257 -0.0003992134 0)
(30.044149 -0.00039933672 0)
(30.043935 -0.00039842016 0)
(30.00001 -0.00031402109 0)
(30.000099 -0.0009435258 0)
(30.000288 -0.0015778703 0)
(30.00058 -0.0022204463 -1.0207542e-24)
(30.000969 -0.0028736889 0)
(30.001453 -0.0035393171 -1.0006904e-24)
(30.002035 -0.0042186862 9.7408526e-25)
(30.002717 -0.0049127823 -9.5811814e-25)
(30.003501 -0.005622099 0)
(30.004389 -0.0063465783 0)
(30.005382 -0.0070855759 -8.959261e-25)
(30.006482 -0.0078378051 3.0788523e-24)
(30.007693 -0.0086012467 -1.2823629e-24)
(30.009016 -0.0093730704 1.2219401e-24)
(30.010452 -0.010149557 1.6034698e-24)
(30.012003 -0.010926033 3.8354336e-25)
(30.013669 -0.011696817 0)
(30.01545 -0.012455181 -1.3250693e-24)
(30.017343 -0.01319335 0)
(30.019345 -0.013902534 -8.6828066e-25)
(30.021453 -0.014573006 1.3155232e-24)
(30.023659 -0.015194235 -1.435973e-24)
(30.025954 -0.015755079 4.387918e-25)
(30.028329 -0.016244049 -7.4048969e-25)
(30.030768 -0.016649628 2.8577097e-24)
(30.033258 -0.016960668 -8.0946227e-25)
(30.035779 -0.017166833 -1.013668e-24)
(30.038312 -0.017259077 1.0985664e-25)
(30.040834 -0.017230147 -1.0984749e-25)
(30.043322 -0.017075058 -1.8333328e-25)
(30.04575 -0.016791527 0)
(30.048094 -0.016380314 0)
(30.05033 -0.015845437 3.1430036e-25)
(30.052434 -0.015194238 -2.1110498e-25)
(30.054385 -0.014437259 4.5296577e-25)
(30.056164 -0.013587947 0)
(30.057757 -0.012662177 0)
(30.059152 -0.011677626 -6.8941682e-25)
(30.060345 -0.010653054 1.9163972e-25)
(30.061332 -0.0096075227 -1.9164176e-25)
(30.062115 -0.0085596389 1.6529376e-24)
(30.062702 -0.0075268477 -8.337789e-25)
(30.063103 -0.0065248502 0)
(30.063329 -0.0055671602 -8.6402457e-25)
(30.063396 -0.0046648238 1.7360421e-24)
(30.063321 -0.0038262977 0)
(30.06312 -0.0030574718 1.7712615e-24)
(30.062812 -0.0023618141 0)
(30.062412 -0.0017406061 0)
(30.061938 -0.0011932361 -1.6122299e-24)
(30.061406 -0.00071752727 1.5991498e-24)
(30.060827 -0.00031006737 1.3262173e-24)
(30.060217 3.3468494e-05 3.6785755e-25)
(30.059584 0.00031803081 1.2419611e-24)
(30.058939 0.00054893581 1.3603339e-24)
(30.05829 0.00073165047 -6.429584e-25)
(30.057644 0.0008716163 -6.1372257e-25)
(30.057006 0.00097411243 5.880728e-25)
(30.056381 0.0010441512 2.1283659e-27)
(30.055771 0.0010864126 0)
(30.055181 0.0011051971 0)
(30.05461 0.0011044053 2.3777594e-25)
(30.054062 0.0010875308 0)
(30.053536 0.001057671 6.8521339e-28)
(30.053033 0.0010175416 6.0301905e-25)
(30.052552 0.00096950111 -1.8953134e-25)
(30.052094 0.00091557773 1.7996898e-25)
(30.051658 0.00085749952 0)
(30.051243 0.00079672224 1.1930823e-27)
(30.050849 0.0007344622 -1.4999908e-25)
(30.050474 0.00067172147 1.4253864e-25)
(30.050118 0.00060931743 0)
(30.04978 0.0005479057 0)
(30.049458 0.0004880038 0)
(30.049153 0.00043001176 0)
(30.048862 0.00037423038 1.0512936e-25)
(30.048585 0.00032087929 -9.7681946e-26)
(30.048321 0.00027011027 0)
(30.04807 0.00022202059 0)
(30.04783 0.00017666353 0)
(30.047601 0.00013405713 0)
(30.047382 9.419256e-05 0)
(30.047172 5.704101e-05 0)
(30.046971 2.2559587e-05 0)
(30.046777 -9.3041137e-06 0)
(30.046592 -3.8609255e-05 0)
(30.046412 -6.5419806e-05 0)
(30.04624 -8.9803633e-05 0)
(30.046073 -0.00011183158 0)
(30.045911 -0.00013157682 0)
(30.045753 -0.00014911426 0)
(30.0456 -0.00016452144 0)
(30.045451 -0.00017787964 0)
(30.045305 -0.00018927866 0)
(30.045162 -0.00019881352 0)
(30.045021 -0.0002066065 0)
(30.044885 -0.00021274312 0)
(30.04474 -0.00021746734 0)
(30.044631 -0.00022050772 0)
(30.044426 -0.00022304249 0)
(30.00001 -0.00035378221 0)
(30.000096 -0.001062804 0)
(30.00028 -0.0017766521 -5.1536157e-25)
(30.000564 -0.0024988669 1.536086e-24)
(30.000943 -0.0032322152 0)
(30.001416 -0.0039787962 1.0006733e-24)
(30.001986 -0.0047403256 1.0021516e-24)
(30.002655 -0.0055181364 0)
(30.003425 -0.0063130466 0)
(30.004299 -0.0071252656 0)
(30.005279 -0.0079543308 -4.5265922e-25)
(30.006369 -0.0087990345 4.8548647e-25)
(30.00757 -0.0096573286 1.7138346e-24)
(30.008886 -0.010526222 1.6863136e-24)
(30.010319 -0.011401693 2.0453138e-24)
(30.011872 -0.012278595 -3.9151023e-25)
(30.013545 -0.013150596 0)
(30.015338 -0.014010118 0)
(30.017252 -0.014848329 0)
(30.019284 -0.015655161 1.8365683e-24)
(30.021429 -0.016419391 5.6834541e-25)
(30.023682 -0.017128783 3.4687902e-24)
(30.026036 -0.017770302 -1.2607498e-24)
(30.028478 -0.018330415 1.8919561e-24)
(30.030996 -0.018795467 -1.6223213e-24)
(30.033573 -0.019152146 1.0364521e-24)
(30.036191 -0.019388021 1.622569e-24)
(30.038828 -0.019492125 0)
(30.04146 -0.019455571 -9.770165e-26)
(30.044061 -0.019272161 1.8086144e-25)
(30.046604 -0.018938923 -6.8786411e-26)
(30.04906 -0.018456566 1.9323054e-25)
(30.051402 -0.017829758 -1.1662365e-24)
(30.053605 -0.017067225 -1.771572e-25)
(30.055643 -0.016181615 -5.1332351e-25)
(30.057497 -0.015189133 2.7147643e-25)
(30.059149 -0.014108946 0)
(30.060588 -0.012962398 1.6505833e-25)
(30.061806 -0.011772094 1.8935498e-25)
(30.062801 -0.010560925 0)
(30.063577 -0.0093511065 9.3945043e-25)
(30.064142 -0.0081633132 1.8366849e-24)
(30.064506 -0.0070159605 1.8680786e-24)
(30.064686 -0.0059246811 0)
(30.064699 -0.004902011 0)
(30.064563 -0.0039572784 -1.8629012e-24)
(30.064297 -0.0030966764 -1.7712063e-24)
(30.063922 -0.0023234815 0)
(30.063457 -0.0016383804 0)
(30.062918 -0.0010398595 1.694541e-24)
(30.062324 -0.00052462468 -1.59913e-24)
(30.061688 -8.8015027e-05 1.5733789e-24)
(30.061023 0.00027559998 1.5086542e-24)
(30.060342 0.00057246837 1.9538579e-25)
(30.059654 0.00080915498 -1.3682596e-24)
(30.058966 0.00099229208 -1.66938e-25)
(30.058286 0.0011283825 0)
(30.057619 0.0012236518 -5.8804723e-25)
(30.056969 0.0012839411 -5.5846068e-25)
(30.056339 0.0013146405 0)
(30.055731 0.0013206494 5.0173192e-25)
(30.055147 0.0013063653 4.7426802e-25)
(30.054587 0.0012756858 4.480215e-25)
(30.054053 0.0012320301 2.1245054e-25)
(30.053543 0.001178364 -2.2352934e-27)
(30.053058 0.0011172356 5.660959e-25)
(30.052597 0.0010508117 1.7755243e-25)
(30.052159 0.00098091526 0)
(30.051744 0.00090906392 1.5913007e-25)
(30.05135 0.00083650573 1.4999454e-25)
(30.050976 0.00076425412 0)
(30.050622 0.00069311981 0)
(30.050285 0.00062373847 0)
(30.049966 0.00055659904 0)
(30.049663 0.00049206589 0)
(30.049375 0.00043040097 0)
(30.049101 0.00037178238 9.7679395e-26)
(30.04884 0.00031631991 0)
(30.048591 0.00026406949 0)
(30.048354 0.00021504353 0)
(30.048128 0.00016922172 0)
(30.047912 0.00012655965 0)
(30.047705 8.6996294e-05 0)
(30.047506 5.0460058e-05 0)
(30.047315 1.6872839e-05 0)
(30.047132 -1.3847174e-05 0)
(30.046955 -4.1784108e-05 0)
(30.046785 -6.702301e-05 0)
(30.04662 -8.9648621e-05 0)
(30.04646 -0.00010974437 0)
(30.046304 -0.00012739227 0)
(30.046153 -0.00014267407 0)
(30.046006 -0.00015567312 0)
(30.045861 -0.00016647765 0)
(30.04572 -0.00017517991 0)
(30.04558 -0.00018188302 0)
(30.045445 -0.00018668303 0)
(30.045301 -0.00018968902 0)
(30.045194 -0.0001910334 0)
(30.044985 -0.00019074236 0)
(30.00001 -0.00039233366 0)
(30.000093 -0.0011785198 0)
(30.000271 -0.0019697361 1.0566557e-24)
(30.000547 -0.0027697628 0)
(30.000915 -0.0035817143 0)
(30.001376 -0.0044080775 1.0312884e-24)
(30.001932 -0.0052509272 -1.0021329e-24)
(30.002587 -0.0061119129 -2.007124e-24)
(30.003342 -0.006992125 0)
(30.004201 -0.0078919848 0)
(30.005167 -0.008811169 0)
(30.006243 -0.0097485195 3.647908e-26)
(30.007434 -0.010701936 0)
(30.008742 -0.011668255 1.7611718e-24)
(30.010172 -0.012643136 -3.2397311e-24)
(30.011726 -0.013620955 -2.7893692e-24)
(30.013407 -0.014594705 -3.8165823e-25)
(30.015215 -0.015555931 0)
(30.017152 -0.016494686 0)
(30.019217 -0.017399538 -1.8209416e-24)
(30.021406 -0.018257646 -5.8379767e-25)
(30.023714 -0.019054901 -6.0945741e-24)
(30.026134 -0.019776162 -3.6466513e-24)
(30.028655 -0.020405582 -1.5409032e-24)
(30.031265 -0.020927053 5.9768461e-25)
(30.033945 -0.021324745 1.5719318e-24)
(30.036677 -0.02158375 -1.2775758e-24)
(30.039437 -0.02169079 -3.4478088e-25)
(30.042199 -0.021634983 0)
(30.044934 -0.021408595 0)
(30.047611 -0.02100774 5.8270488e-26)
(30.0502 -0.020432956 -1.173635e-25)
(30.05267 -0.019689588 5.2520692e-25)
(30.054989 -0.018787943 8.1804147e-25)
(30.057132 -0.017743139 7.6078573e-25)
(30.059073 -0.016574661 2.9257964e-25)
(30.060794 -0.015305627 0)
(30.062282 -0.0139618 0)
(30.063528 -0.01257043 0)
(30.064531 -0.011159028 0)
(30.065296 -0.0097541538 1.0766978e-25)
(30.065831 -0.0083803436 -1.836549e-24)
(30.066151 -0.0070592304 -1.8679554e-24)
(30.066273 -0.0058089253 3.9501403e-24)
(30.066218 -0.0046436683 0)
(30.066008 -0.0035737413 5.7459702e-24)
(30.065664 -0.0026056106 0)
(30.065209 -0.0017422418 -3.7159994e-24)
(30.064664 -0.00098354454 3.605649e-24)
(30.064049 -0.00032688105 -5.1771706e-24)
(30.063381 0.00023239894 0)
(30.062677 0.00070044145 -1.5732924e-24)
(30.061949 0.0010844183 -1.5085676e-24)
(30.061211 0.0013921017 -1.4425919e-24)
(30.060472 0.0016315156 1.3922777e-24)
(30.059739 0.0018106494 1.322005e-24)
(30.059019 0.00193724 0)
(30.058318 0.0020186141 0)
(30.057639 0.0020615789 0)
(30.056984 0.0020723589 -1.0604434e-24)
(30.056356 0.0020565646 -1.0624802e-27)
(30.055755 0.0020191903 -4.742489e-25)
(30.055182 0.0019646281 -2.3892967e-27)
(30.054637 0.0018967039 4.2014669e-25)
(30.054119 0.0018187104 -3.9917643e-25)
(30.053628 0.0017334564 -3.4004346e-27)
(30.053163 0.0016433124 8.811452e-26)
(30.052722 0.0015502574 2.5143911e-25)
(30.052305 0.0014559257 0)