# vtk DataFile Version 3.0
Time Step 60, Physical Time = 0.000600s, Residual = 5.49e-03
ASCII
DATASET UNSTRUCTURED_GRID
POINTS 5000 float
0.318712 0.385257 0.000000
-0.318712 0.385257 0.000000
-0.318712 -0.385257 0.000000
0.318712 -0.385257 0.000000
0.093691 0.491144 0.000000
-0.093691 0.491144 0.000000
-0.093691 -0.491144 0.000000
0.093691 -0.491144 0.000000
0.404508 0.293893 0.000000
-0.404508 0.293893 0.000000
-0.404508 -0.293893 0.000000
0.404508 -0.293893 0.000000
0.438153 0.240877 0.000000
-0.438153 0.240877 0.000000
-0.438153 -0.240877 0.000000
0.438153 -0.240877 0.000000
0.500000 0.000000 0.000000
-0.500000 -0.000000 0.000000
0.364484 0.342274 0.000000
-0.364484 0.342274 0.000000
-0.364484 -0.342274 0.000000
0.364484 -0.342274 0.000000
0.496057 0.062667 0.000000
-0.496057 0.062667 0.000000
-0.496057 -0.062667 0.000000
0.496057 -0.062667 0.000000
0.212890 0.452414 0.000000
-0.212890 0.452414 0.000000
-0.212890 -0.452414 0.000000
0.212890 -0.452414 0.000000
0.154508 0.475528 0.000000
-0.154508 0.475528 0.000000
-0.154508 -0.475528 0.000000
0.154508 -0.475528 0.000000
0.267913 0.422164 0.000000
-0.267913 0.422164 0.000000
-0.267913 -0.422164 0.000000
0.267913 -0.422164 0.000000
0.031395 0.499013 0.000000
-0.031395 0.499013 0.000000
-0.031395 -0.499013 0.000000
0.031395 -0.499013 0.000000
0.464888 0.184062 0.000000
-0.464888 0.184062 0.000000
-0.464888 -0.184062 0.000000
0.464888 -0.184062 0.000000
0.484292 0.124345 0.000000
-0.484292 0.124345 0.000000
-0.484292 -0.124345 0.000000
0.484292 -0.124345 0.000000
-0.031454 0.499951 0.000000
0.438977 0.241329 0.000000
-0.268417 0.422957 0.000000
0.365169 0.342917 0.000000
-0.496990 -0.062784 0.000000
0.319311 -0.385981 0.000000
0.405269 0.294445 0.000000
-0.093867 0.492067 0.000000
0.500940 -0.000000 0.000000
-0.213290 0.453264 0.000000
-0.154799 0.476422 0.000000
0.031454 0.499951 0.000000
0.465762 0.184408 0.000000
0.319311 0.385981 0.000000
0.365169 -0.342917 0.000000
0.405269 -0.294445 0.000000
-0.365169 0.342917 0.000000
-0.319311 0.385981 0.000000
0.268417 0.422957 0.000000
0.213290 0.453264 0.000000
-0.319311 -0.385981 0.000000
0.154799 -0.476422 0.000000
-0.485202 -0.124579 0.000000
0.154799 0.476422 0.000000
0.268417 -0.422957 0.000000
0.093867 0.492067 0.000000
-0.031454 -0.499951 0.000000
-0.500940 0.000000 0.000000
0.438977 -0.241329 0.000000
-0.438977 -0.241329 0.000000
0.093867 -0.492067 0.000000
-0.485202 0.124579 0.000000
0.485202 0.124579 0.000000
-0.496990 0.062784 0.000000
0.213290 -0.453264 0.000000
0.031454 -0.499951 0.000000
0.496990 -0.062784 0.000000
0.465762 -0.184408 0.000000
-0.465762 -0.184408 0.000000
-0.213290 -0.453264 0.000000
-0.093867 -0.492067 0.000000
-0.405269 -0.294445 0.000000
0.496990 0.062784 0.000000
0.485202 -0.124579 0.000000
-0.154799 -0.476422 0.000000
-0.365169 -0.342917 0.000000
-0.465762 0.184408 0.000000
-0.438977 0.241329 0.000000
-0.405269 0.294445 0.000000
-0.268417 -0.422957 0.000000
-0.031523 0.501039 0.000000
0.439932 0.241854 0.000000
-0.269001 0.423877 0.000000
0.365964 0.343663 0.000000
-0.498071 -0.062921 0.000000
0.320005 -0.386820 0.000000
0.406150 0.295085 0.000000
-0.094071 0.493137 0.000000
0.502029 -0.000000 0.000000
-0.213754 0.454250 0.000000
-0.155136 0.477458 0.000000
0.031523 0.501039 0.000000
0.466775 0.184809 0.000000
0.365964 -0.343663 0.000000
0.406150 -0.295085 0.000000
0.320005 0.386820 0.000000
-0.365964 0.343663 0.000000
-0.320005 0.386820 0.000000
0.269001 0.423877 0.000000
0.213754 0.454250 0.000000
-0.320005 -0.386820 0.000000
0.155136 -0.477458 0.000000
-0.486257 -0.124850 0.000000
0.155136 0.477458 0.000000
0.269001 -0.423877 0.000000
0.094071 0.493137 0.000000
-0.031523 -0.501039 0.000000
-0.502029 0.000000 0.000000
0.439932 -0.241854 0.000000
-0.439932 -0.241854 0.000000
0.094071 -0.493137 0.000000
-0.486257 0.124850 0.000000
0.486257 0.124850 0.000000
-0.498071 0.062921 0.000000
0.213754 -0.454250 0.000000
0.031523 -0.501039 0.000000
0.466775 -0.184809 0.000000
0.498071 -0.062921 0.000000
-0.466775 -0.184809 0.000000
-0.213754 -0.454250 0.000000
-0.094071 -0.493137 0.000000
-0.406150 -0.295085 0.000000
0.498071 0.062921 0.000000
-0.155136 -0.477458 0.000000
0.486257 -0.124850 0.000000
-0.365964 -0.343663 0.000000
-0.466775 0.184809 0.000000
-0.439932 0.241854 0.000000
-0.406150 0.295085 0.000000
-0.269001 -0.423877 0.000000
-0.031604 0.502329 0.000000
0.441064 0.242477 0.000000
-0.269693 0.424969 0.000000
0.366906 0.344547 0.000000
-0.499353 -0.063083 0.000000
0.320829 -0.387816 0.000000
0.407196 0.295845 0.000000
-0.094313 0.494407 0.000000
0.503322 -0.000000 0.000000
-0.214304 0.455419 0.000000
-0.155535 0.478688 0.000000
0.031604 0.502329 0.000000
0.467977 0.185285 0.000000
0.366906 -0.344547 0.000000
0.407196 -0.295845 0.000000
0.320829 0.387816 0.000000
0.269693 0.424969 0.000000
-0.366906 0.344547 0.000000
-0.320829 0.387816 0.000000
0.214304 0.455419 0.000000
-0.320829 -0.387816 0.000000
0.155535 -0.478688 0.000000
-0.487509 -0.125171 0.000000
0.155535 0.478688 0.000000
0.269693 -0.424969 0.000000
-0.031604 -0.502329 0.000000
0.094313 0.494407 0.000000
-0.503322 0.000000 0.000000
0.441064 -0.242477 0.000000
-0.441064 -0.242477 0.000000
-0.487509 0.125171 0.000000
0.094313 -0.494407 0.000000
0.487509 0.125171 0.000000
-0.499353 0.063083 0.000000
0.214304 -0.455419 0.000000
0.031604 -0.502329 0.000000
0.467977 -0.185285 0.000000
0.499353 -0.063083 0.000000
-0.467977 -0.185285 0.000000
-0.214304 -0.455419 0.000000
-0.094313 -0.494407 0.000000
-0.407196 -0.295845 0.000000
0.499353 0.063083 0.000000
-0.155535 -0.478688 0.000000
0.487509 -0.125171 0.000000
-0.467977 0.185285 0.000000
-0.366906 -0.344547 0.000000
-0.441064 0.242477 0.000000
-0.407196 0.295845 0.000000
-0.269693 -0.424969 0.000000
-0.031700 0.503862 0.000000
0.442411 0.243217 0.000000
-0.270517 0.426266 0.000000
0.368026 0.345599 0.000000
-0.500877 -0.063276 0.000000
0.321809 -0.389000 0.000000
0.408439 0.296748 0.000000
-0.094601 0.495916 0.000000
0.504858 -0.000000 0.000000
-0.214958 0.456810 0.000000
-0.156010 0.480149 0.000000
0.031700 0.503862 0.000000
0.469405 0.185851 0.000000
0.368026 -0.345599 0.000000
0.408439 -0.296748 0.000000
0.321809 0.389000 0.000000
0.270517 0.426266 0.000000
-0.368026 0.345599 0.000000
-0.321809 0.389000 0.000000
0.214958 0.456810 0.000000
-0.321809 -0.389000 0.000000
0.156010 -0.480149 0.000000
0.270517 -0.426266 0.000000
-0.488997 -0.125553 0.000000
0.156010 0.480149 0.000000
-0.031700 -0.503862 0.000000
0.094601 0.495916 0.000000
-0.504858 0.000000 0.000000
0.442411 -0.243217 0.000000
-0.442411 -0.243217 0.000000
-0.488997 0.125553 0.000000
0.094601 -0.495916 0.000000
0.488997 0.125553 0.000000
-0.500877 0.063276 0.000000
0.214958 -0.456810 0.000000
0.031700 -0.503862 0.000000
0.469405 -0.185851 0.000000
0.500877 -0.063276 0.000000
-0.469405 -0.185851 0.000000
-0.214958 -0.456810 0.000000
-0.094601 -0.495916 0.000000
-0.408439 -0.296748 0.000000
-0.469405 0.185851 0.000000
0.500877 0.063276 0.000000
-0.156010 -0.480149 0.000000
0.488997 -0.125553 0.000000
-0.368026 -0.345599 0.000000
-0.442411 0.243217 0.000000
-0.408439 0.296748 0.000000
-0.270517 -0.426266 0.000000
-0.031815 0.505686 0.000000
0.444012 0.244098 0.000000
-0.271496 0.427809 0.000000
0.369358 0.346850 0.000000
-0.502691 -0.063505 0.000000
0.322974 -0.390408 0.000000
0.409918 0.297823 0.000000
-0.094943 0.497711 0.000000
0.506686 -0.000000 0.000000
-0.215736 0.458463 0.000000
-0.156575 0.481887 0.000000
0.031815 0.505686 0.000000
0.369358 -0.346850 0.000000
0.409918 -0.297823 0.000000
0.471105 0.186524 0.000000
0.322974 0.390408 0.000000
0.271496 0.427809 0.000000
-0.369358 0.346850 0.000000
-0.322974 0.390408 0.000000
0.215736 0.458463 0.000000
0.156575 -0.481887 0.000000
-0.322974 -0.390408 0.000000
0.271496 -0.427809 0.000000
-0.490768 -0.126008 0.000000
0.156575 0.481887 0.000000
-0.031815 -0.505686 0.000000
0.094943 0.497711 0.000000
-0.506686 0.000000 0.000000
0.444012 -0.244098 0.000000
-0.490768 0.126008 0.000000
-0.444012 -0.244098 0.000000
0.094943 -0.497711 0.000000
0.490768 0.126008 0.000000
-0.502691 0.063505 0.000000
0.215736 -0.458463 0.000000
0.031815 -0.505686 0.000000
0.471105 -0.186524 0.000000
-0.471105 -0.186524 0.000000
0.502691 -0.063505 0.000000
-0.215736 -0.458463 0.000000
-0.094943 -0.497711 0.000000
-0.409918 -0.297823 0.000000
-0.471105 0.186524 0.000000
0.502691 0.063505 0.000000
-0.156575 -0.481887 0.000000
0.490768 -0.126008 0.000000
-0.369358 -0.346850 0.000000
-0.444012 0.244098 0.000000
-0.409918 0.297823 0.000000
-0.271496 -0.427809 0.000000
-0.031952 0.507855 0.000000
0.445917 0.245145 0.000000
-0.272661 0.429644 0.000000
0.370943 0.348338 0.000000
-0.504847 -0.063777 0.000000
0.324359 -0.392083 0.000000
0.411676 0.299100 0.000000
-0.095351 0.499846 0.000000
0.508859 -0.000000 0.000000
-0.216662 0.460430 0.000000
-0.157246 0.483954 0.000000
0.031952 0.507855 0.000000
0.370943 -0.348338 0.000000
0.411676 -0.299100 0.000000
0.324359 0.392083 0.000000
0.473126 0.187324 0.000000
0.272661 0.429644 0.000000
-0.370943 0.348338 0.000000
-0.324359 0.392083 0.000000
0.216662 0.460430 0.000000
0.157246 -0.483954 0.000000
-0.324359 -0.392083 0.000000
0.272661 -0.429644 0.000000
0.157246 0.483954 0.000000
-0.492873 -0.126548 0.000000
-0.031952 -0.507855 0.000000
0.095351 0.499846 0.000000
0.445917 -0.245145 0.000000
-0.508859 0.000000 0.000000
-0.492873 0.126548 0.000000
-0.445917 -0.245145 0.000000
0.095351 -0.499846 0.000000
-0.504847 0.063777 0.000000
0.216662 -0.460430 0.000000
0.492873 0.126548 0.000000
0.031952 -0.507855 0.000000
0.473126 -0.187324 0.000000
-0.473126 -0.187324 0.000000
0.504847 -0.063777 0.000000
-0.216662 -0.460430 0.000000
-0.095351 -0.499846 0.000000
-0.473126 0.187324 0.000000
-0.411676 -0.299100 0.000000
-0.157246 -0.483954 0.000000
0.504847 0.063777 0.000000
0.492873 -0.126548 0.000000
-0.370943 -0.348338 0.000000
-0.445917 0.245145 0.000000
-0.411676 0.299100 0.000000
-0.272661 -0.429644 0.000000
0.318712 0.385257 0.100000
-0.318712 0.385257 0.100000
[...]
POINT_DATA 5000
SCALARS pressure float 1
LOOKUP_TABLE default
101674.402894
101674.402894
101674.402894
101674.402894
101674.402894
101674.402894
101674.402894
101674.402894
101674.402894
101674.402894
101674.402894
101674.402894
101674.402894
101674.402894
101674.402894
101674.402894
101325.000000
101325.000000
101325.000000
101325.000000
101325.000000
101325.000000
101325.000000
101325.000000
101325.000000
101325.000000
101325.000000
101325.000000
101325.000000
101325.000000
101325.000000
101325.000000
101325.000000
101325.000000
101325.000000
101325.000000
101325.000000
101325.000000
101325.000000
101325.000000
101325.000000
101325.000000
101325.000000
101325.000000
101325.000000
101325.000000
101325.000000
101325.000000
101325.000000
101325.000000
101323.956518
101324.756863
101324.253168
101324.509084
101324.983544
101324.378042
101324.638059
101323.989171
101325.000000
101324.142307
101324.052426
101323.956518
101324.858032
101324.378042
101324.509084
101324.638059
101324.509084
101324.378042
101324.253168
101324.142307
101324.378042
101324.052426
101324.935209
101324.052426
101324.253168
101323.989171
101323.956518
101325.000000
101324.756863
101324.756863
101323.989171
101324.935209
101324.935209
101324.983544
101324.142307
101323.956518
101324.983544
101324.858032
101324.858032
101324.142307
101323.989171
101324.638059
101324.983544
101324.935209
101324.052426
101324.509084
101324.858032
101324.756863
101324.638059
101324.253168
101322.753850
101324.476635
101323.392405
101323.943277
101324.964577
101323.661203
101324.220902
101322.824137
101325.000000
101323.153771
101322.960296
101322.753850
101324.694407
101323.943277
101324.220902
101323.661203
101323.943277
101323.661203
101323.392405
101323.153771
101323.661203
101322.960296
101324.860533
101322.960296
101323.392405
101322.824137
101322.753850
101325.000000
101324.476635
101324.476635
101322.824137
101324.860533
101324.860533
101324.964577
101323.153771
101322.753850
101324.694407
101324.964577
101324.694407
101323.153771
101322.824137
101324.220902
101324.964577
101322.960296
101324.860533
101323.943277
101324.694407
101324.476635
101324.220902
101323.392405
101321.337088
101324.146522
101322.378412
101323.276748
101324.942234
101322.816756
101323.729486
101321.451710
101325.000000
101321.989260
101321.673751
101321.337088
101324.501653
101323.276748
101323.729486
101322.816756
101322.378412
101323.276748
101322.816756
101321.989260
101322.816756
101321.673751
101324.772564
101321.673751
101322.378412
101321.337088
101321.451710
101325.000000
101324.146522
101324.146522
101324.772564
101321.451710
101324.772564
101324.942234
101321.989260
101321.337088
101324.501653
101324.942234
101324.501653
101321.989260
101321.451710
101323.729486
101324.942234
101321.673751
101324.772564
101324.501653
101323.276748
101324.146522
101323.729486
101322.378412
101319.667143
101323.757416
101321.183213
101322.491106
101324.915898
101321.821401
101323.150250
101319.834022
101325.000000
101320.616644
101320.157293
101319.667143
101324.274454
101322.491106
101323.150250
101321.821401
101321.183213
101322.491106
101321.821401
101320.616644
101321.821401
101320.157293
101321.183213
101324.668875
101320.157293
101319.667143
101319.834022
101325.000000
101323.757416
101323.757416
101324.668875
101319.834022
101324.668875
101324.915898
101320.616644
101319.667143
101324.274454
101324.915898
101324.274454
101320.616644
101319.834022
101323.150250
101324.274454
101324.915898
101320.157293
101324.668875
101322.491106
101323.757416
101323.150250
101321.183213
101317.700610
101323.299204
101319.775743
101321.565932
101324.884884
101320.649267
101322.468140
101317.929026
101325.000000
101319.000247
101318.371506
101317.700610
101321.565932
101322.468140
101324.006903
101320.649267
101319.775743
101321.565932
101320.649267
101319.000247
101318.371506
101320.649267
101319.775743
101324.546770
101318.371506
101317.700610
101317.929026
101325.000000
101323.299204
101324.546770
101323.299204
101317.929026
101324.546770
101324.884884
101319.000247
101317.700610
101324.006903
101324.006903
101324.884884
101319.000247
101317.929026
101322.468140
101324.006903
101324.884884
101318.371506
101324.546770
101321.565932
101323.299204
101322.468140
101319.775743
101315.389554
101322.760716
101318.121694
101320.478674
101324.848438
101319.271784
101321.666530
101315.690289
101325.000000
101317.100669
101316.272862
101315.389554
101320.478674
101321.666530
101319.271784
101323.692479
101318.121694
101320.478674
101319.271784
101317.100669
101316.272862
101319.271784
101318.121694
101316.272862
101324.403273
101315.389554
101315.690289
101322.760716
101325.000000
101324.403273
101322.760716
101315.690289
101324.848438
101317.100669
101324.403273
101315.389554
101323.692479
101323.692479
101324.848438
101317.100669
101315.690289
101323.692479
101321.666530
101316.272862
101324.848438
101324.403273
101320.478674
101322.760716
101321.666530
101318.121694
101674.402894
101674.402894
101674.402894
101674.402894
101674.402894
101674.402894
101674.402894
101674.402894
101674.402894
101674.402894
101674.402894
101674.402894
101674.402894
101674.402894
101674.402894
101674.402894
101325.000000
101325.000000
101325.000000
101325.000000
101325.000000
101325.000000
101325.000000
101325.000000
101325.000000
101325.000000
101325.000000
101325.000000
101325.000000
101325.000000
101325.000000
101325.000000
101325.000000
101325.000000
101325.000000
101325.000000
101325.000000
101325.000000
101325.000000
101325.000000
101325.000000
101325.000000
101325.000000
101325.000000
101325.000000
101325.000000
101325.000000
101325.000000
101325.000000
101325.000000
101323.956518
101324.756863
101323.989171
101324.638059
101324.638059
101324.052426
101324.509084
101324.052426
101324.253168
101324.142307
101324.253168
101324.378042
101324.756863
101323.956518
101324.983544
101324.052426
101324.509084
101324.858032
101324.935209
101324.142307
101324.378042
101323.989171
101324.378042
101324.253168
101324.935209
101324.756863
101325.000000
101324.142307
101324.935209
101323.989171
101324.142307
101324.858032
101324.858032
101325.000000
101324.983544
101324.509084
101323.956518
101323.956518
101324.378042
101324.983544
101324.756863
101324.858032
101324.638059
101324.983544
101324.052426
101323.989171
101324.253168
101324.935209
101324.509084
101324.638059
101312.681009
101322.129610
101319.204412
101316.183157
101324.805722
101317.657381
101320.727046
101313.066501
101325.000000
101314.874372
101313.813262
101312.681009
101319.204412
101320.727046
101317.657381
101323.323975
101316.183157
101314.874372
101319.204412
101317.657381
101313.813262
101317.657381
101316.183157
101313.813262
101324.235096
101312.681009
101313.066501
101322.129610
101325.000000
101324.235096
101322.129610
101313.066501
101314.874372
101324.805722
101324.235096
101312.681009
101323.323975
101323.323975
101324.805722
101314.874372
101323.323975
101313.066501
101320.727046
101313.813262
101324.805722
101324.235096
101319.204412
101322.129610
101320.727046
101316.183157
101322.753850
101324.476635
101322.824137
101324.220902
101324.220902
101323.943277
101322.960296
101322.960296
101323.392405
101323.153771
101323.392405
101323.661203
101324.476635
101322.753850
101324.964577
101322.960296
101323.943277
101324.694407
101324.860533
101323.153771
101323.661203
101322.824137
101323.661203
101323.392405
101324.860533
101324.476635
101323.153771
101325.000000
101324.860533
101322.824137
101323.153771
101324.694407
101324.694407
101324.964577
101325.000000
101323.943277
101322.753850
101322.753850
101323.661203
101324.964577
101324.476635
101324.694407
101324.220902
101324.964577
101322.960296
101322.824137
101323.392405
101324.860533
101323.943277
101324.220902
101321.337088
101324.146522
101321.451710
101323.729486
101323.729486
101323.276748
101321.673751
101321.673751
101322.378412
101321.989260
101322.378412
101322.816756
101324.146522
101324.942234
101321.337088
101321.673751
101323.276748
101324.772564
101324.501653
101321.989260
101322.816756
101321.451710
101322.816756
101322.378412
101324.772564
101324.146522
101321.989260
101325.000000
101324.772564
101321.451710
101321.989260
101324.501653
101324.501653
101324.942234
101325.000000
101323.276748
101321.337088
101321.337088
101322.816756
101324.942234
101324.146522
101324.501653
101323.729486
101324.942234
101321.673751
101321.451710
101322.378412
101324.772564
101323.276748
101323.729486
101309.514061
101321.391695
101317.714491
101313.916536
101324.755777
101315.769751
101319.628562
101309.998654
101325.000000
101312.271291
101310.937392
101309.514061
101319.628562
101317.714491
101315.769751
101322.893106
101313.916536
101312.271291
101317.714491
101315.769751
101310.937392
101313.916536
101315.769751
101310.937392
101324.038455
101309.514061
101321.391695
101309.998654
101325.000000
101324.038455
101321.391695
101309.998654
101312.271291
101324.755777
101324.038455
101309.514061
101322.893106
101322.893106
101324.755777
101312.271291
101322.893106
101309.998654
101319.628562
101310.937392
101324.755777
101321.391695
101324.038455
101317.714491
101313.916536
101319.628562
101319.667143
101323.757416
101319.834022
101323.150250
101323.150250
101322.491106
101320.157293
101320.157293
101321.183213
101321.183213
101320.616644
101321.821401
101323.757416
101324.915898
101319.667143
101320.157293
101322.491106
101324.668875
101324.274454
101320.616644
101321.821401
101319.834022
101321.821401
101321.183213
101324.668875
101323.757416
101320.616644
101325.000000
101324.668875
101319.834022
101320.616644
101324.274454
101324.274454
101324.915898
101325.000000
101322.491106
101319.667143
101319.667143
101321.821401
101324.915898
101323.757416
101324.274454
101323.150250
101324.915898
101320.157293
101319.834022
101321.183213
101324.668875
101322.491106
101323.150250
101317.700610
101323.299204
101322.468140
101317.929026
101322.468140
101321.565932
101318.371506
101318.371506
101319.775743
101319.775743
101319.000247
101320.649267
101323.299204
101324.884884
101318.371506
101317.700610
101321.565932
101324.546770
101319.000247
101324.006903
101320.649267
101317.929026
101319.775743
101320.649267
101324.546770
101323.299204
101319.000247
101325.000000
101317.929026
101324.546770
101319.000247
101324.006903
101324.006903
101324.884884
101325.000000
101321.565932
101317.700610
101317.700610
101320.649267
101324.884884
101323.299204
101324.006903
101322.468140
101318.371506
101317.929026
101324.884884
101319.775743
101324.546770
101321.565932
101322.468140
101305.817890
101320.530468
101315.975592
101311.271145
101324.697487
101313.566683
101318.346512
101306.418146
101325.000000
101309.233214
101307.580941
101305.817890
101318.346512
101315.975592
101313.566683
101311.271144
101322.390234
101309.233214
101315.975592
101313.566683
101307.580941
101311.271144
101313.566683
101307.580941
101323.808955
101305.817890
101320.530468
101306.418146
101325.000000
101323.808955
101306.418146
101320.530468
101309.233214
101324.697487
101323.808955
101305.817890
101322.390234
101322.390234
101322.390234
101309.233214
101324.697487
101306.418146
101307.580941
101318.346512
101324.697487
101320.530467
101323.808955
101315.975592
101311.271144
101318.346512
101315.389554
101322.760716
101321.666530
101315.690289
101321.666530
101320.478674
101316.272862
101316.272862
101318.121694
101318.121694
101317.100669
101319.271784
101322.760716
101324.848438
101316.272862
101315.389554
101320.478674
101324.403273
101317.100669
101323.692479
101319.271784
101318.121694
101315.690289
101319.271784
101324.403273
101322.760716
101317.100669
101325.000000
101315.690289
101324.403273
101317.100669
101323.692479
101323.692479
101324.848438
101325.000000
101320.478674
101315.389554
101315.389554
101319.271784
101323.692479
101322.760716
101324.848438
101321.666530
101316.272862
101315.690289
101318.121694
101324.848438
101324.403273
101320.478674
101321.666530
101312.681009
101322.129610
101320.727046
101320.727046
101319.204412
101313.066501
101313.813262
101313.813262
101316.183157
101316.183157
101314.874372
101317.657381
101322.129610
101324.805722
101313.813262
101312.681009
101319.204412
101324.235096
101314.874372
101323.323975
101317.657381
101316.183157
101313.066501
101324.235096
101322.129610
101317.657381
101314.874372
101313.066501
101325.000000
101314.874372
101324.235096
101323.323975
101323.323975
101324.805722
101325.000000
101312.681009
101319.204412
101312.681009
101317.657381
101323.323975
101322.129610
101324.805722
101320.727046
101313.813262
101313.066501
101316.183157
101324.805722
101324.235096
101319.204412
101320.727046
101301.530392
101319.531458
101313.958498
101308.202533
101324.629870
101311.011160
101316.859354
101302.264814
101325.000000
101305.709093
101303.687512
101301.530392
101316.859354
101313.958498
101311.011160
101308.202533
101305.709093
101321.806911
101303.687512
101313.958498
101311.011160
101308.202533
101303.687512
101311.011160
101323.542738
101319.531458
101301.530392
101302.264814
101325.000000
101323.542738
101302.264814
101319.531458
101305.709093
101324.629870
101323.542738
101301.530392
101321.806911
101321.806911
101321.806911
101305.709093
101324.629870
101302.264814
101303.687512
101316.859354
101319.531458
101324.629870
101323.542738
101313.958497
101308.202533
101316.859354
101309.514061
101321.391695
101319.628562
101319.628562
101317.714491
101310.937392
101309.998654
101310.937392
101313.916536
101313.916536
101315.769751
101312.271291
101321.391695
101310.937392
101324.755777
101309.514061
101317.714491
101324.038455
101312.271291
101322.893106
101315.769751
101313.916536
101309.998654
101321.391695
101324.038455
101315.769751
101312.271291
101309.998654
101312.271291
101325.000000
101324.038455
101322.893106
101322.893106
101324.755777
101325.000000
101309.514061
101309.514061
101317.714491
101322.893106
101315.769751
101321.391695
101324.755777
101319.628562
101310.937392
101309.998654
101313.916536
101324.038455
101324.755777
101317.714491
101319.628562
101296.581102
101318.378247
101311.630056
101304.660269
101324.551817
101308.061182
101315.142648
101297.470399
101325.000000
101299.193117
101301.641011
101296.581102
101315.142648
101311.630056
101308.061182
101304.660269
101301.641011
101321.133549
101299.193117
101304.660269
101311.630056
101308.061182
101299.193117
101323.235429
101318.378247
101308.061182
101296.581102
101297.470399
101323.235429
101325.000000
101297.470399
101318.378247
101301.641011
101324.551817
101296.581101
101323.235429
101321.133549
101321.133549
101321.133549
101301.641011
101297.470399
101324.551817
101299.193117
101315.142648
101318.378247
101324.551817
101323.235429
101311.630056
101304.660269
101315.142648
101305.817890
101320.530468
101318.346512
101318.346512
101315.975592
101307.580941
101306.418146
101307.580941
101311.271144
101311.271144
101313.566683
101309.233214
101320.530468
101307.580941
101324.697487
101315.975592
101323.808955
101305.817890
101309.233214
101322.390234
101313.566683
101311.271144
101320.530468
101306.418146
101323.808955
101309.233214
101313.566683
101309.233214
101306.418146
101325.000000
101323.808955
101322.390234
101322.390234
101324.697487
101325.000000
101305.817890
101305.817890
101315.975592
101322.390234
101313.566683
101320.530467
101324.697487
101307.580941
101318.346512
101306.418146
101311.271144
101323.808955
101324.697487
101315.975592
101318.346512
101301.530392
101319.531458
101316.859354
101303.687512
101313.958498
101316.859354
101302.264814
101303.687512
101308.202533
101308.202533
101311.011160
101319.531458
101305.709093
101303.687512
101324.629870
101313.958498
101323.542738
101301.530392
101305.709093
101311.011160
101308.202533
101321.806911
101319.531458
101302.264814
101323.542738
101305.709093
101305.709093
101311.011160
101302.264814
101325.000000
101323.542738
101321.806911
101321.806911
101324.629870
101301.530392
101301.530392
101325.000000
101321.806911
101313.958498
101311.011160
101319.531458
101324.629870
101303.687512
101308.202533
101302.264814
101316.859354
101323.542738
101324.629870
101313.958497
101316.859354
101290.894933
101317.053340
101308.954944
101300.590613
101304.671994
101324.462143
101313.170349
101291.962165
101325.000000
101294.029571
101296.967249
101313.170349
101290.894933
101308.954944
101304.671994
101296.967249
101300.590613
101320.359934
101294.029571
101300.590613
101294.029571
101308.954944
101317.053340
101304.671994
101322.882366
101290.894933
101304.671994
101291.962165
101322.882366
101325.000000
101291.962165
101317.053340
101296.967249
101324.462143
101290.894933
101322.882366
101320.359934
101320.359934
101320.359934
101296.967249
101291.962165
101294.029571
101324.462143
101317.053340
101313.170349
101324.462143
101322.882366
101300.590613
101308.954944
101313.170349
101296.581102
101318.378247
101315.142648
101299.193117
101311.630056
101315.142648
101297.470399
101299.193117
101304.660269
101304.660269
101308.061182
101318.378247
101299.193117
101301.641011
101324.551817
101323.235429
101311.630056
101301.641011
101296.581102
101304.660269
101308.061182
101318.378247
101321.133549
101301.641011
101323.235429
101301.641011
101297.470399
101308.061182
101297.470399
101321.133549
101321.133549
101325.000000
101323.235429
101324.551817
101296.581101
101296.581101
101321.133549
101325.000000
101311.630056
101318.378247
101308.061182
101324.551817
101299.193117
101304.660269
101297.470399
101315.142648
101323.235429
101324.551817
101311.630056
101315.142648
101284.381857
101315.535759
101305.890805
101295.929130
101300.789936
101324.359428
101310.911230
101285.652899
101325.000000
101310.911230
101305.890805
101288.115120
101291.613809
101284.381857
101291.613809
101300.789936
101295.929130
101288.115120
101295.929130
101319.473817
101315.535759
101288.115120
101322.477960
101305.890805
101300.789936
101284.381857
101300.789936
101322.477960
101285.652899
101325.000000
101285.652899
101315.535759
101291.613809
101324.359428
101319.473817
101284.381857
101319.473817
101322.477960
101291.613809
101319.473817
101285.652899
101288.115120
101324.359428
101315.535759
101310.911230
101324.359428
101295.929130
101322.477960
101305.890805
101310.911230
101290.894933
101317.053340
101313.170349
101294.029571
101308.954944
101313.170349
101291.962165
101300.590613
101294.029571
101304.671994
101300.590613
101317.053340
101294.029571
101322.882366
101324.462143
101308.954944
101296.967249
101296.967249
101290.894933
101300.590613
101304.671994
101296.967249
101317.053340
101296.967249
101322.882366
101320.359934
101291.962165
101291.962165
101304.671994
101320.359934
101320.359934
101322.882366
101325.000000
101324.462143
101320.359934
101290.894933
101290.894933
101325.000000
101317.053340
101308.954944
101304.671994
101294.029571
101324.462143
101300.590613
101291.962165
101313.170349
101322.882366
101324.462143
101308.954944
101313.170349
101277.006224
101313.817198
101302.420868
101290.650305
101296.393759
101324.243109
101308.352925
101278.508069
101325.000000
101308.352925
101302.420868
101285.551388
101296.393759
101290.650305
101281.417391
101277.006224
101285.551388
101281.417391
101290.650305
101313.817198
101281.417391
101318.470346
101322.019996
101277.006224
101302.420867
101296.393759
101296.393759
101322.019996
101278.508068
101325.000000
101278.508068
101313.817198
101285.551388
101318.470346
101324.243109
101277.006224
101285.551388
101318.470346
101322.019996
101318.470346
101281.417391
101278.508068
101313.817198
101324.243109
101308.352925
101290.650305
101324.243109
101322.019996
101302.420867
101308.352925
101284.381857
101310.911230
101315.535759
101288.115120
101305.890805
101310.911230
101285.652899
101295.929130
101300.789936
101288.115120
101315.535759
101295.929130
101288.115120
101322.477960
101305.890805
101324.359428
101291.613809
101291.613809
101284.381857
101291.613809
101295.929130
101300.789936
101315.535759
101291.613809