/*--------------------------------*- C++ -*----------------------------------*\
| =========                 |                                                 |
| \\      /  F ield         | OpenFOAM: The Open Source CFD Toolbox           |
|  \\    /   O peration     | Version:  2406                                  |
|   \\  /    A nd           | Website:  www.openfoam.com                      |
|    \\/     M anipulation  |                                                 |
\*---------------------------------------------------------------------------*/
FoamFile
{
    version     2.0;
    format      ascii;
    arch        "LSB;label=32;scalar=64";
    class       volScalarField;
    location    "900";
    object      k;
}
// * * * * * * * * * * * * * * * * * * * * * * * * * * * * * * * * * * * * * //

dimensions      [0 2 -2 0 0 0 0];

internalField   nonuniform List<scalar> 
16045
(
0.054775659
0.047087648
0.041212732
0.036588004
0.032859034
0.029792663
0.027229247
0.025056291
0.023192136
0.02157625
0.020162867
0.018916594
0.017810005
0.016820966
0.015932229
0.015129116
0.014400435
0.013735894
0.013128138
0.012569529
0.012055296
0.01157941
0.011138954
0.010728848
0.010347591
0.0099906163
0.0096575674
0.009344095
0.0090508131
0.0087733891
0.0085132862
0.0082660521
0.0080339135
0.0078122019
0.0076038492
0.0074038952
0.0072159443
0.0070346753
0.00686436
0.0066992427
0.0065442817
0.006393209
0.0062517034
0.0061129117
0.0059832648
0.0058552709
0.0057361278
0.0056176772
0.0055078813
0.0053979028
0.0052964669
0.0051940328
0.0051001171
0.0050044132
0.0049173041
0.0048276107
0.0047466967
0.0046623813
0.0045871268
0.0045076419
0.0044375646
0.0043624437
0.0042971016
0.0042259488
0.0041649372
0.0040974104
0.0040403666
0.0039761583
0.003922768
0.00386159
0.0038115885
0.003753167
0.0037063287
0.0036504122
0.0036065327
0.0035529028
0.0035117857
0.0034602574
0.0034217156
0.0033721269
0.0033359904
0.0032881897
0.0032543126
0.0032081518
0.0031764104
0.0031317472
0.0031020376
0.003058723
0.003030991
0.0029888226
0.0029630883
0.0029218631
0.0028980521
0.0028577633
0.0028357031
0.0027962729
0.0027761024
0.0027378149
0.0027162995
0.0026737944
0.054775659
0.047087642
0.041212718
0.036587984
0.032859006
0.02979263
0.027229209
0.025056247
0.023192089
0.0215762
0.020162814
0.018916539
0.017809948
0.016820908
0.01593217
0.015129055
0.014400373
0.013735832
0.013128076
0.012569467
0.012055235
0.011579349
0.011138894
0.010728789
0.010347534
0.0099905603
0.0096575133
0.0093440429
0.0090507632
0.0087733414
0.0085132411
0.0082660095
0.0080338737
0.0078121649
0.0076038151
0.0074038639
0.007215916
0.0070346499
0.0068643374
0.0066992229
0.0065442646
0.0063931945
0.0062516913
0.0061129019
0.0059832572
0.0058552654
0.0057361241
0.0056176753
0.005507881
0.0053979039
0.0052964694
0.0051940364
0.0051001218
0.0050044188
0.0049173105
0.0048276179
0.0047467045
0.0046623896
0.0045871356
0.0045076511
0.0044375742
0.0043624535
0.0042971117
0.004225959
0.0041649477
0.0040974209
0.0040403773
0.003976169
0.0039227788
0.0038616008
0.0038115993
0.0037531778
0.0037063396
0.003650423
0.0036065435
0.0035529135
0.0035117965
0.0034602681
0.0034217262
0.0033721375
0.0033360009
0.0032882001
0.0032543229
0.003208162
0.0031764206
0.0031317573
0.0031020477
0.003058733
0.003031001
0.0029888325
0.0029630982
0.0029218729
0.0028980618
0.0028577729
0.0028357127
0.0027962824
0.0027761118
0.0027378243
0.0027163089
0.0026738036
0.054775659
0.04708764
0.041212715
0.036587978
0.032858999
0.029792621
0.027229198
0.025056236
0.023192077
0.021576187
0.020162801
0.018916526
0.017809935
0.016820894
0.015932156
0.015129042
0.01440036
0.013735819
0.013128064
0.012569456
0.012055224
0.011579339
0.011138885
0.010728782
0.010347528
0.009990556
0.0096575108
0.0093440424
0.0090507648
0.0087733453
0.0085132473
0.008266018
0.0080338846
0.0078121782
0.0076038307
0.0074038818
0.007215936
0.007034672
0.0068643615
0.0066992487
0.006544292
0.0063932233
0.0062517214
0.0061129331
0.0059832892
0.0058552981
0.0057361574
0.0056177089
0.0055079149
0.0053979379
0.0052965034
0.0051940703
0.0051001555
0.0050044522
0.0049173436
0.0048276505
0.0047467367
0.0046624215
0.0045871669
0.0045076819
0.0044376045
0.0043624833
0.0042971411
0.0042259879
0.0041649761
0.0040974488
0.0040404047
0.003976196
0.0039228053
0.0038616269
0.003811625
0.0037532031
0.0037063645
0.0036504475
0.0036065677
0.0035529373
0.0035118199
0.0034602912
0.0034217491
0.0033721599
0.0033360231
0.003288222
0.0032543446
0.0032081833
0.0031764417
0.0031317781
0.0031020683
0.0030587533
0.0030310211
0.0029888523
0.0029631178
0.0029218922
0.002898081
0.0028577919
0.0028357315
0.0027963009
0.0027761303
0.0027378424
0.0027163269
0.0026738214
0.054775659
0.047087639
0.041212712
0.036587973
0.032858991
0.02979261
0.027229185
0.02505622
0.023192059
0.021576167
0.020162778
0.018916501
0.017809908
0.016820865
0.015932126
0.01512901
0.014400328
0.013735786
0.013128031
0.012569423
0.012055192
0.011579308
0.011138855
0.010728753
0.0103475
0.0099905306
0.0096574876
0.0093440216
0.0090507468
0.0087733302
0.0085132353
0.0082660093
0.0080338793
0.0078121762
0.0076038321
0.0074038866
0.0072159441
0.0070346832
0.0068643758
0.0066992658
0.0065443119
0.0063932456
0.006251746
0.0061129597
0.0059833176
0.0058553281
0.0057361887
0.0056177415
0.0055079484
0.0053979723
0.0052965384
0.0051941058
0.0051001914
0.0050044883
0.0049173799
0.0048276869
0.0047467732
0.0046624578
0.0045872031
0.0045077179
0.0044376403
0.0043625189
0.0042971764
0.0042260229
0.0041650108
0.0040974832
0.0040404388
0.0039762297
0.0039228388
0.00386166
0.0038116578
0.0037532355
0.0037063966
0.0036504793
0.0036065991
0.0035529684
0.0035118507
0.0034603216
0.0034217793
0.0033721898
0.0033360527
0.0032882512
0.0032543736
0.003208212
0.0031764701
0.0031318062
0.0031020962
0.0030587808
0.0030310484
0.0029888793
0.0029631446
0.0029219187
0.0028981073
0.0028578179
0.0028357574
0.0027963265
0.0027761556
0.0027378675
0.0027163518
0.002673846
0.054775659
0.047087639
0.04121271
0.036587969
0.032858986
0.029792601
0.027229174
0.025056208
0.023192045
0.021576152
0.020162762
0.018916483
0.017809889
0.016820845
0.015932106
0.01512899
0.014400307
0.013735766
0.013128011
0.012569404
0.012055174
0.011579292
0.011138841
0.010728741
0.010347491
0.0099905238
0.009657484
0.0093440214
0.0090507502
0.0087733374
0.0085132464
0.0082660244
0.0080338986
0.0078121996
0.0076038596
0.007403918
0.0072159794
0.0070347221
0.0068644181
0.0066993112
0.0065443601
0.0063932963
0.0062517989
0.0061130145
0.005983374
0.0058553857
0.0057362474
0.0056178008
0.0055080083
0.0053980323
0.0052965985
0.0051941658
0.0051002511
0.0050045476
0.0049174387
0.0048277451
0.0047468307
0.0046625146
0.0045872592
0.0045077732
0.0044376948
0.0043625725
0.0042972292
0.0042260748
0.004165062
0.0040975335
0.0040404884
0.0039762785
0.0039228868
0.0038617072
0.0038117044
0.0037532813
0.0037064418
0.0036505237
0.003606643
0.0035530115
0.0035118933
0.0034603635
0.0034218207
0.0033722306
0.0033360931
0.0032882909
0.0032544129
0.0032082507
0.0031765085
0.003131844
0.0031021336
0.0030588177
0.003031085
0.0029889153
0.0029631803
0.002921954
0.0028981422
0.0028578524
0.0028357915
0.0027963602
0.0027761891
0.0027379006
0.0027163846
0.0026738783
0.054775659
0.047087638
0.041212709
0.036587966
0.03285898
0.029792595
0.027229165
0.025056197
0.023192032
0.021576136
0.020162744
0.018916463
0.017809867
0.016820823
0.015932082
0.015128965
0.014400282
0.013735741
0.013127986
0.012569379
0.01205515
0.011579269
0.01113882
0.010728722
0.010347475
0.0099905108
0.0096574743
0.0093440154
0.0090507483
0.0087733397
0.0085132533
0.0082660359
0.0080339149
0.0078122206
0.0076038854
0.0074039484
0.0072160142
0.0070347612
0.0068644611
0.006699358
0.0065444102
0.0063933494
0.0062518545
0.0061130724
0.0059834338
0.005855447
0.0057363099
0.0056178643
0.0055080723
0.0053980968
0.0052966631
0.0051942304
0.0051003155
0.0050046117
0.0049175025
0.0048278083
0.0047468933
0.0046625765
0.0045873205
0.0045078337
0.0044377547
0.0043626315
0.0042972875
0.0042261323
0.0041651187
0.0040975895
0.0040405436
0.0039763329
0.0039229406
0.0038617602
0.0038117568
0.0037533329
0.0037064928
0.003650574
0.0036066928
0.0035530606
0.0035119419
0.0034604115
0.0034218681
0.0033722774
0.0033361394
0.0032883367
0.0032544582
0.0032082954
0.0031765528
0.0031318877
0.003102177
0.0030588605
0.0030311274
0.0029889573
0.002963222
0.0029219951
0.0028981831
0.0028578927
0.0028358316
0.0027963997
0.0027762284
0.0027379394
0.0027164231
0.0026739163
0.054775658
0.047087638
0.041212707
0.036587963
0.032858975
0.029792588
0.027229156
0.025056186
0.023192018
0.02157612
0.020162725
0.018916444
0.017809846
0.0168208
0.015932058
0.015128941
0.014400258
0.013735716
0.013127962
0.012569356
0.012055129
0.011579249
0.011138803
0.010728707
0.010347464
0.0099905033
0.0096574711
0.0093440167
0.0090507546
0.0087733513
0.0085132705
0.0082660587
0.0080339435
0.0078122549
0.0076039255
0.007403994
0.0072160653
0.0070348172
0.006864522
0.0066994231
0.0065444793
0.0063934218
0.0062519301
0.0061131504
0.005983514
0.0058555288
0.005736393
0.0056179481
0.0055081568
0.0053981813
0.0052967479
0.0051943147
0.0051003996
0.0050046949
0.004917585
0.0048278899
0.004746974
0.0046626562
0.0045873989
0.0045079113
0.0044378307
0.0043627069
0.0042973612
0.0042262054
0.0041651901
0.0040976603
0.0040406128
0.0039764015
0.0039230077
0.0038618267
0.0038118219
0.0037533974
0.0037065561
0.0036506367
0.0036067542
0.0035531215
0.0035120017
0.0034604706
0.0034219264
0.0033723349
0.0033361962
0.0032883927
0.0032545136
0.00320835
0.0031766069
0.0031319409
0.0031022298
0.0030589125
0.0030311791
0.0029890081
0.0029632724
0.0029220449
0.0028982323
0.0028579414
0.0028358798
0.0027964474
0.0027762757
0.0027379861
0.0027164694
0.0026739618
0.054775647
0.047087653
0.04121269
0.036587976
0.032858954
0.029792597
0.027229132
0.025056188
0.02319199
0.021576115
0.020162697
0.01891643
0.017809818
0.016820777
0.015932034
0.015128909
0.014400238
0.013735677
0.013127948
0.012569315
0.012055119
0.011579211
0.011138796
0.010728677
0.010347459
0.0099904864
0.0096574694
0.0093440152
0.0090507589
0.0087733645
0.0085132855
0.0082660841
0.008033974
0.0078122893
0.0076039747
0.0074040351
0.007216133
0.0070348649
0.0068646044
0.0066994794
0.0065445703
0.006393489
0.0062520246
0.006113227
0.0059836117
0.0058556082
0.005736499
0.0056180203
0.0055082771
0.0053982395
0.0052968817
0.0051943629
0.0051005339
0.0050047514
0.0049176945
0.0048279818
0.0047470303
0.004662808
0.0045873834
0.0045081322
0.0044377443
0.0043629854
0.0042972246
0.0042265143
0.004165034
0.004097969
0.0040404643
0.0039766899
0.0039228785
0.0038620923
0.0038117067
0.0037536509
0.0037064431
0.0036508875
0.0036066402
0.0035533656
0.0035118984
0.0034606905
0.0034218553
0.0033725082
0.0033361774
0.003288505
0.0032545546
0.0032084013
0.0031767018
0.0031319426
0.0031023584
0.0030589053
0.0030312639
0.0029891137
0.0029631727
0.0029223506
0.0028979843
0.0028583108
0.0028355558
0.0027968902
0.0027755618
0.0027376509
0.0027212284
0.0026688894
0.054775647
0.047087653
0.041212689
0.036587972
0.03285895
0.029792589
0.027229122
0.025056175
0.023191975
0.021576096
0.020162677
0.018916407
0.017809794
0.01682075
0.015932005
0.01512888
0.014400208
0.013735647
0.013127918
0.012569286
0.012055091
0.011579185
0.011138773
0.010728658
0.010347444
0.0099904758
0.0096574641
0.0093440158
0.0090507661
0.0087733785
0.0085133068
0.0082661129
0.0080340105
0.0078123335
0.0076040265
0.0074040944
0.0072161994
0.0070349382
0.0068646838
0.0066995646
0.0065446605
0.0063935837
0.0062521232
0.0061133288
0.0059837161
0.0058557145
0.0057366067
0.005618129
0.0055083863
0.0053983487
0.0052969908
0.0051944713
0.0051006416
0.005004858
0.0049178001
0.0048280861
0.0047471331
0.0046629096
0.0045874833
0.0045082308
0.0044378411
0.004363081
0.0042973183
0.0042266069
0.0041651249
0.0040980587
0.0040405523
0.0039767767
0.0039229638
0.0038621764
0.0038117895
0.0037537326
0.0037065235
0.0036509668
0.0036067183
0.0035534427
0.0035119744
0.0034607654
0.0034219293
0.0033725813
0.0033362495
0.0032885761
0.0032546249
0.0032084707
0.0031767704
0.0031320103
0.0031024254
0.0030589714
0.0030313294
0.0029891784
0.0029632368
0.0029224139
0.0028980469
0.0028583727
0.0028356171
0.0027969509
0.0027756218
0.0027377103
0.0027212876
0.0026689476
0.054775659
0.047087635
0.041212701
0.036587952
0.032858959
0.029792564
0.027229125
0.025056147
0.023191971
0.021576065
0.020162663
0.018916374
0.01780977
0.016820718
0.015931972
0.015128851
0.014400165
0.013735623
0.01312787
0.012569267
0.012055043
0.01157917
0.011138731
0.010728646
0.010347414
0.009990468
0.0096574519
0.009344015
0.0090507722
0.0087733892
0.0085133303
0.0082661409
0.0080340487
0.0078123831
0.0076040767
0.0074041674
0.0072162601
0.0070350322
0.0068647557
0.0066996737
0.0065447452
0.0063937011
0.0062522207
0.0061134504
0.0059838217
0.0058558422
0.0057367107
0.0056182684
0.0055084786
0.0053985031
0.005297069
0.0051946338
0.0051007166
0.0050050087
0.0049178956
0.0048281964
0.0047472765
0.0046629544
0.0045876927
0.0045082006
0.0044381154
0.0043629873
0.0042976369
0.0042264769
0.0041654572
0.0040979232
0.0040408717
0.0039766563
0.0039232587
0.0038620737
0.0038120654
0.0037536371
0.0037067926
0.0036508695
0.0036069841
0.0035533479
0.0035122254
0.003460691
0.0034221443
0.0033725496
0.0033364086
0.003288602
0.0032547208
0.0032085542
0.0031768092
0.0031321404
0.0031024275
0.0030591075
0.0030313724
0.0029891988
0.0029634615
0.0029222314
0.0028984175
0.002858124
0.0028360612
0.0027966263
0.0027764535
0.0027381614
0.0027166438
0.0026741334
0.054775658
0.047087635
0.041212698
0.036587949
0.032858953
0.029792556
0.027229113
0.025056131
0.023191952
0.021576043
0.020162638
0.018916345
0.017809739
0.016820684
0.015931936
0.015128813
0.014400126
0.013735583
0.01312783
0.012569227
0.012055005
0.011579134
0.011138698
0.010728617
0.01034739
0.0099904492
0.0096574397
0.00934401
0.0090507754
0.0087734012
0.0085133515
0.0082661718
0.0080340897
0.0078124342
0.0076041377
0.0074042382
0.0072163403
0.0070351213
0.0068648529
0.0066997785
0.0065448564
0.0063938181
0.0062523425
0.0061135763
0.0059839505
0.0058559735
0.0057368435
0.0056184023
0.0055086127
0.0053986373
0.0052972023
0.0051947666
0.0051008478
0.0050051387
0.0049180238
0.004828323
0.0047474013
0.004663077
0.0045878138
0.0045083192
0.0044382327
0.0043631019
0.0042977504
0.0042265878
0.0041655669
0.0040980305
0.0040409778
0.0039767602
0.0039233614
0.0038621744
0.003812165
0.0037537348
0.0037068892
0.0036509644
0.003607078
0.0035534402
0.0035123167
0.0034607808
0.0034222331
0.0033726371
0.0033364951
0.0032886873
0.0032548052
0.0032086375
0.0031768916
0.0031322217
0.003102508
0.0030591869
0.003031451
0.0029892764
0.0029635384
0.0029223073
0.0028984928
0.0028581983
0.0028361349
0.0027966991
0.0027765257
0.0027382329
0.0027167143
0.0026742031
0.054775646
0.047087649
0.041212682
0.036587962
0.03285893
0.029792563
0.027229085
0.025056129
0.023191918
0.02157603
0.0201626
0.01891632
0.017809698
0.016820647
0.015931896
0.015128764
0.014400089
0.013735525
0.013127796
0.012569165
0.012054975
0.011579075
0.011138672
0.010728568
0.010347368
0.0099904171
0.0096574251
0.0093439985
0.0090507732
0.0087734116
0.008513368
0.0082662031
0.0080341308
0.007812484
0.0076042073
0.0074043045
0.0072164378
0.0070352031
0.0068649734
0.0066998765
0.0065449922
0.0063939326
0.0062524865
0.0061137039
0.0059841005
0.0058561059
0.0057370027
0.0056185278
0.005508786
0.0053987481
0.0052973883
0.0051948661
0.0051010326
0.0050052448
0.004918182
0.0048284624
0.0047475042
0.0046632744
0.0045878429
0.0045085837
0.0044381891
0.0043634221
0.0042976548
0.0042269365
0.0041654502
0.0040983775
0.004040867
0.0039770854
0.0039232686
0.0038624755
0.0038120849
0.0037540227
0.0037068101
0.0036512485
0.0036069967
0.0035537165
0.0035122451
0.0034610318
0.0034221928
0.0033728406
0.0033365063
0.003288829
0.0032548753
0.0032087174
0.0031770148
0.0031322512
0.0031026641
0.0030592067
0.0030315627
0.0029894085
0.002963465
0.0029226389
0.0028982704
0.002858593
0.002835836
0.0027971667
0.0027758363
0.0027379217
0.0027214978
0.0026691539
0.054775645
0.047087647
0.04121268
0.036587955
0.032858923
0.02979255
0.02722907
0.025056109
0.023191895
0.021576001
0.020162567
0.018916283
0.017809657
0.016820602
0.015931848
0.015128713
0.014400036
0.013735471
0.01312774
0.01256911
0.01205492
0.011579022
0.011138622
0.010728522
0.010347328
0.009990383
0.0096573987
0.0093439808
0.0090507654
0.0087734146
0.0085133828
0.0082662302
0.0080341708
0.007812537
0.0076042732
0.0074043832
0.0072165288
0.0070353057
0.0068650867
0.0066999994
0.0065451236
0.0063940713
0.0062526313
0.0061138536
0.0059842539
0.005856262
0.0057371607
0.0056186866
0.0055089452
0.0053989067
0.0052975462
0.0051950223
0.0051011875
0.0050053973
0.0049183326
0.0048286107
0.0047476501
0.004663418
0.0045879836
0.0045087227
0.0044383248
0.0043635563
0.0042977857
0.0042270662
0.0041655767
0.0040985027
0.0040409893
0.0039772064
0.003923387
0.0038625927
0.0038121997
0.0037541362
0.0037069215
0.0036513586
0.0036071049
0.0035538234
0.0035123504
0.0034611358
0.0034222953
0.0033729419
0.0033366061
0.0032889276
0.0032549727
0.0032088135
0.0031771099
0.003132345
0.003102757
0.0030592984
0.0030316535
0.0029894982
0.0029635538
0.0029227267
0.0028983572
0.0028586789
0.002835921
0.0027972508
0.0027759196
0.0027380041
0.0027215798
0.0026692345
0.054775656
0.047087631
0.041212691
0.036587934
0.032858928
0.029792522
0.027229066
0.025056073
0.02319188
0.021575958
0.020162539
0.018916235
0.017809615
0.01682055
0.015931791
0.01512866
0.014399966
0.013735418
0.013127662
0.012569058
0.01205484
0.011578973
0.011138547
0.010728477
0.010347267
0.0099903445
0.0096573581
0.0093439546
0.0090507498
0.0087734079
0.0085133936
0.0082662509
0.0080342075
0.0078125911
0.0076043342
0.0074044729
0.0072166122
0.0070354279
0.0068651919
0.0067001463
0.00654525
0.0063942335
0.0062527763
0.0061140247
0.0059844104
0.0058564414
0.0057373168
0.005618878
0.0055090893
0.0053991121
0.0052976748
0.0051952342
0.005101311
0.0050055953
0.0049184744
0.0048287661
0.0047478375
0.0046635059
0.0045882349
0.0045087336
0.0044386389
0.004363502
0.0042981423
0.004226974
0.0041659453
0.0040984035
0.0040413436
0.0039771207
0.0039237155
0.0038625233
0.0038125081
0.0037540729
0.003707222
0.0036512924
0.0036074012
0.0035537588
0.003512631
0.0034610906
0.003422539
0.0033729386
0.0033367933
0.003288981
0.003255096
0.0032089239
0.0031771754
0.0031325012
0.0031027852
0.0030594599
0.0030317219
0.0029895434
0.0029638033
0.0029225686
0.0028987519
0.002858454
0.0028363887
0.0027969495
0.0027767744
0.0027384781
0.0027169582
0.002674443
0.054775644
0.047087644
0.041212674
0.036587944
0.032858904
0.029792523
0.027229033
0.025056062
0.023191838
0.021575933
0.020162489
0.018916194
0.017809558
0.016820493
0.01593173
0.015128587
0.014399903
0.013735333
0.013127599
0.012568966
0.012054777
0.011578881
0.011138486
0.010728395
0.010347211
0.0099902796
0.0096573121
0.0093439138
0.0090507213
0.0087733955
0.0085133914
0.008266268
0.0080342396
0.0078126373
0.0076044054
0.0074045466
0.0072167223
0.0070355276
0.0068653346
0.0067002709
0.0065454156
0.006394381
0.0062529553
0.0061141893
0.0059845982
0.0058566125
0.0057375148
0.0056190425
0.005509301
0.0053992611
0.0052978977
0.0051953705
0.005101531
0.0050057362
0.0049186661
0.0048289384
0.0047479726
0.0046637339
0.004588295
0.0045090266
0.0044386252
0.0043638488
0.0042980754
0.0042273481
0.0041658561
0.0040987748
0.0040412591
0.0039774694
0.0039236477
0.0038628473
0.003812452
0.0037543829
0.0037071661
0.003651598
0.0036073423
0.0035540561
0.0035125811
0.0034613621
0.0034225197
0.0033731623
0.0033368247
0.0032891425
0.0032551857
0.0032090232
0.0031773177
0.0031325498
0.00310296
0.0030594984
0.0030318519
0.0029896936
0.002963748
0.0029229177
0.0028985473
0.0028588659
0.0028361071
0.0027974339
0.0027761019
0.0027381836
0.0027217582
0.0026694101
0.054775655
0.047087627
0.041212684
0.036587921
0.032858909
0.029792491
0.027229027
0.025056021
0.023191817
0.021575882
0.020162451
0.018916133
0.017809503
0.016820426
0.015931656
0.015128515
0.014399813
0.013735257
0.013127496
0.012568889
0.012054669
0.011578804
0.011138382
0.01072832
0.010347119
0.0099902113
0.0096572425
0.0093438599
0.0090506799
0.0087733655
0.008513382
0.0082662721
0.0080342636
0.007812683
0.0076044623
0.0074046368
0.0072168106
0.0070356587
0.0068654526
0.0067004339
0.006545561
0.0063945644
0.0062531234
0.0061143846
0.0059847796
0.0058568172
0.0057376965
0.0056192593
0.0055094703
0.0053994909
0.0052980505
0.0051956055
0.0051016774
0.0050059559
0.0049188292
0.0048291146
0.0047481797
0.0046638416
0.0045885644
0.0045090567
0.004438956
0.0043638129
0.0042984477
0.0042272735
0.0041662398
0.0040986923
0.0040416278
0.0039773996
0.0039239902
0.0038627931
0.003812774
0.0037543342
0.0037074798
0.0036515458
0.0036076514
0.0035540048
0.0035128741
0.0034613298
0.0034227756
0.0033731715
0.0033370236
0.0032892079
0.0032553205
0.0032091452
0.0031773944
0.0031327172
0.003102999
0.0030596708
0.0030319308
0.0029897495
0.0029640076
0.0029227701
0.0028989519
0.0028586512
0.0028365845
0.0027971425
0.0027769661
0.0027386672
0.002717146
0.0026746279
0.054775655
0.047087627
0.041212679
0.036587913
0.032858895
0.029792474
0.027229002
0.02505599
0.023191779
0.021575837
0.020162399
0.018916073
0.017809435
0.016820351
0.015931574
0.015128426
0.014399718
0.013735157
0.013127392
0.012568781
0.01205456
0.011578694
0.011138273
0.010728213
0.010347018
0.0099901171
0.0096571576
0.0093437864
0.00905062
0.0087733216
0.0085133558
0.0082662654
0.0080342777
0.0078127188
0.0076045201
0.0074047165
0.0072169113
0.0070357796
0.0068655915
0.0067005895
0.0065457304
0.0063947461
0.0062533143
0.0061145833
0.0059849834
0.0058570249
0.0057379057
0.0056194695
0.0055096794
0.0053996993
0.0052982559
0.0051958089
0.0051018769
0.0050061527
0.004919022
0.0048293039
0.0047483655
0.0046640231
0.0045887433
0.0045092306
0.0044391282
0.0043639798
0.0042986135
0.004227434
0.0041663993
0.0040988471
0.0040417815
0.0039775492
0.0039241386
0.0038629378
0.0038129175
0.0037544744
0.0037076188
0.0036516819
0.0036077862
0.003554137
0.0035130051
0.0034614584
0.0034229029
0.0033732967
0.0033371475
0.00328933
0.0032554412
0.0032092643
0.0031775122
0.0031328335
0.003103114
0.0030597845
0.0030320433
0.0029898606
0.0029641177
0.0029228787
0.0028990597
0.0028587576
0.00283669
0.0027972468
0.0027770696
0.0027387696
0.002717247
0.0026747279
0.054775643
0.047087639
0.04121266
0.03658792
0.032858867
0.029792469
0.027228961
0.02505597
0.023191725
0.021575798
0.02016233
0.018916013
0.017809354
0.016820267
0.015931483
0.01512832
0.014399618
0.013735032
0.013127285
0.012568642
0.012054447
0.011578549
0.011138157
0.010728074
0.010346904
0.0099899935
0.0096570538
0.0093436894
0.0090505382
0.0087732596
0.0085133093
0.0082662444
0.0080342788
0.0078127418
0.0076045765
0.0074047837
0.0072170232
0.0070358889
0.0068657511
0.006700737
0.0065459243
0.0063949257
0.0062535289
0.0061147852
0.0059852102
0.0058572351
0.0057381432
0.0056196726
0.0055099293
0.0053998849
0.0052985149
0.0051959793
0.0051021306
0.0050063251
0.0049192446
0.0048295056
0.0047485289
0.0046642788
0.0045888294
0.0045095499
0.0044391385
0.0043643517
0.004298569
0.0042278319
0.0041663314
0.004099241
0.0040417175
0.0039779193
0.0039240905
0.0038632822
0.0038128804
0.003754804
0.0037075812
0.0036520062
0.0036077452
0.0035544523
0.0035129724
0.0034617473
0.0034229004
0.0033735371
0.0033371953
0.0032895076
0.003255547
0.0032093792
0.0031776701
0.0031328971
0.003103304
0.0030598376
0.0030321881
0.002990025
0.0029640766
0.0029232418
0.0028988688
0.002859183
0.0028364218
0.0027977444
0.0027764101
0.0027384877
0.0027220605
0.0026697069
0.054775653
0.047087622
0.041212669
0.036587894
0.032858866
0.029792432
0.027228946
0.025055919
0.02319169
0.02157573
0.020162274
0.01891593
0.017809273
0.01682017
0.015931376
0.015128211
0.014399487
0.013734911
0.013127133
0.012568512
0.012054282
0.011578411
0.01113799
0.010727932
0.010346745
0.0099898565
0.0096569156
0.009343568
0.0090504321
0.008773169
0.0085132448
0.0082662001
0.0080342626
0.0078127562
0.0076046118
0.0074048621
0.0072171095
0.0070360272
0.0068658846
0.0067009227
0.0065460983
0.0063951426
0.0062537337
0.0061150197
0.005985432
0.0058574807
0.0057383654
0.0056199292
0.0055101374
0.0054001522
0.0052987039
0.0051962489
0.0051023101
0.0050065766
0.0049194382
0.0048297109
0.0047487641
0.0046644135
0.0045891246
0.0045096052
0.0044394932
0.0043643395
0.0042989636
0.0042277796
0.0041667362
0.0040991797
0.0040421063
0.0039778697
0.0039244523
0.0038632473
0.003813221
0.0037547738
0.0037079129
0.0036519721
0.0036080717
0.0035544187
0.0035132825
0.0034617321
0.0034231729
0.0033735629
0.0033374106
0.0032895892
0.0032556978
0.0032095169
0.0031777626
0.00313308
0.0031033586
0.0030600252
0.0030322823
0.0029900959
0.0029643513
0.0029231091
0.0028992881
0.002858983
0.0028369138
0.0027974674
0.0027772888
0.0027389857
0.0027174622
0.0026749393
0.05477564
0.047087633
0.041212649
0.0365879
0.032858835
0.029792424
0.0272289
0.025055891
0.023191626
0.021575679
0.020162192
0.018915853
0.017809174
0.016820066
0.01593126
0.015128078
0.014399356
0.013734752
0.013126988
0.012568331
0.012054125
0.011578219
0.011137823
0.010727739
0.010346575
0.0099896755
0.0096567537
0.0093434134
0.0090502938
0.0087730535
0.0085131487
0.0082661349
0.0080342259
0.0078127488
0.0076046457
0.0074049153
0.0072172155
0.0070361387
0.0068660531
0.0067010856
0.0065463121
0.0063953462
0.0062539745
0.0061152498
0.0059856873
0.00585772
0.0057386311
0.0056201601
0.0055104134
0.0054003636
0.0052989866
0.0051964427
0.0051025851
0.0050067702
0.0049196803
0.0048299314
0.0047489456
0.0046646858
0.0045892279
0.004509939
0.0044395201
0.0043647243
0.004298935
0.0042281895
0.004166683
0.004099585
0.004042056
0.0039782509
0.003924417
0.0038636024
0.003813196
0.0037551137
0.0037078868
0.0036523064
0.0036080415
0.0035547436
0.0035132602
0.0034620303
0.0034231802
0.0033738125
0.0033374677
0.0032897757
0.0032558123
0.0032096406
0.0031779289
0.0031331521
0.0031035566
0.0030600866
0.0030324348
0.0029902683
0.0029643178
0.0029234796
0.0028991047
0.0028594157
0.0028366527
0.0027979721
0.0027766363
0.0027387108
0.0027222823
0.0026699247
0.054775652
0.047087615
0.041212657
0.036587871
0.032858833
0.029792382
0.027228879
0.025055831
0.023191583
0.0215756
0.020162122
0.018915754
0.017809074
0.016819946
0.015931128
0.015127939
0.014399192
0.013734594
0.013126796
0.012568157
0.012053911
0.011578028
0.011137598
0.010727538
0.010346353
0.0099894727
0.009656548
0.0093432245
0.0090501212
0.008772899
0.0085130244
0.0082660368
0.008034163
0.0078127253
0.0076046524
0.0074049751
0.007217293
0.0070362775
0.0068661955
0.0067012873
0.0065465079
0.006395589
0.0062542081
0.0061155147
0.0059859403
0.0058579965
0.0057388836
0.0056204458
0.0055106494
0.0054006571
0.0052992005
0.0051967356
0.0051027867
0.0050070423
0.0049198933
0.0048301551
0.0047491981
0.0046648372
0.0045895387
0.0045100097
0.0044398891
0.0043647265
0.004299343
0.0042281508
0.0041671005
0.0040995364
0.004042457
0.0039782134
0.0039247906
0.0038635792
0.003813548
0.0037550949
0.0037082295
0.0036522831
0.0036083787
0.0035547206
0.0035135807
0.0034620255
0.0034234629
0.0033738484
0.0033376929
0.0032898673
0.0032559729
0.0032097881
0.0031780309
0.0031333446
0.0031036206
0.0030602836
0.0030325382
0.0029903484
0.0029646016
0.0029233559
0.0028995331
0.0028592245
0.0028371536
0.002797704
0.0027775237
0.0027392174
0.0027176923
0.0026751659
0.05477565
0.047087612
0.041212649
0.036587859
0.032858813
0.029792353
0.027228841
0.025055782
0.023191522
0.021575527
0.020162035
0.018915653
0.017808959
0.016819817
0.015930984
0.01512778
0.014399018
0.013734406
0.013126594
0.012567942
0.012053685
0.011577792
0.011137354
0.010727289
0.010346101
0.0099892234
0.0096563049
0.0093429925
0.0090499058
0.0087727058
0.0085128592
0.0082659049
0.0080340694
0.0078126738
0.0076046452
0.0074050136
0.0072173756
0.0070364026
0.0068663581
0.0067014838
0.0065467314
0.0063958352
0.0062544702
0.0061157887
0.0059862207
0.0058582807
0.0057391676
0.0056207284
0.0055109277
0.0054009313
0.0052994681
0.005196998
0.0051030419
0.0050072917
0.0049201358
0.0048303916
0.0047494287
0.0046650614
0.0045897587
0.0045102226
0.0044400994
0.0043649292
0.0042995442
0.0042283447
0.0041672933
0.0040997226
0.0040426421
0.0039783927
0.0039249686
0.0038637522
0.0038137196
0.0037552621
0.0037083953
0.0036524449
0.0036085392
0.0035548774
0.0035137362
0.0034621777
0.0034236136
0.0033739963
0.0033378392
0.0032900113
0.0032561151
0.0032099283
0.0031781692
0.0031334812
0.0031037552
0.0030604167
0.0030326696
0.0029904781
0.0029647299
0.0029234823
0.0028996584
0.0028593479
0.0028372759
0.0027978246
0.0027776434
0.0027393355
0.0027178086
0.002675281
0.054775649
0.047087608
0.041212642
0.036587845
0.032858791
0.029792323
0.0272288
0.025055729
0.023191456
0.021575447
0.020161941
0.018915544
0.017808834
0.016819676
0.015930826
0.015127605
0.014398827
0.013734198
0.013126369
0.012567701
0.012053429
0.011577523
0.011137074
0.010727
0.010345808
0.0099889291
0.0096560148
0.009342712
0.0090496416
0.0087724645
0.0085126481
0.0082657308
0.0080339387
0.0078125914
0.0076046147
0.0074050364
0.0072174506
0.0070365274
0.0068665274
0.006701692
0.0065469713
0.0063961001
0.006254753
0.0061160838
0.0059865225
0.0058585854
0.0057394715
0.0056210292
0.0055112236
0.005401221
0.005299751
0.0051972735
0.0051033102
0.0050075525
0.0049203896
0.0048306384
0.0047496691
0.0046652954
0.0045899869
0.0045104452
0.0044403168
0.0043651418
0.0042997521
0.0042285483
0.0041674928
0.0040999182
0.0040428341
0.0039785812
0.0039251539
0.0038639343
0.0038138989
0.0037554384
0.0037085691
0.003652616
0.0036087079
0.0035550436
0.0035139003
0.0034623394
0.0034237735
0.0033741539
0.0033379951
0.003290165
0.0032562673
0.0032100785
0.003178318
0.003133628
0.0031039007
0.0030605604
0.003032812
0.0029906187
0.0029648694
0.0029236201
0.0028997952
0.0028594831
0.0028374101
0.0027979572
0.0027777751
0.0027394658
0.0027179379
0.0026754086
0.054775648
0.047087605