/*--------------------------------*- C++ -*----------------------------------*\
| =========                 |                                                 |
| \\      /  F ield         | OpenFOAM: The Open Source CFD Toolbox           |
|  \\    /   O peration     | Version:  2406                                  |
|   \\  /    A nd           | Website:  www.openfoam.com                      |
|    \\/     M anipulation  |                                                 |
\*---------------------------------------------------------------------------*/
FoamFile
{
    version     2.0;
    format      ascii;
    arch        "LSB;label=32;scalar=64";
    class       volScalarField;
    location    "900";
    object      nut;
}
// * * * * * * * * * * * * * * * * * * * * * * * * * * * * * * * * * * * * * //

dimensions      [0 2 -1 0 0 0 0];

internalField   nonuniform List<scalar> 
16045
(
0.0001488914
0.0001471283
0.00014558639
0.0001442204
0.00014299472
0.00014188647
0.00014087379
0.00013994505
0.00013908466
0.00013828758
0.00013754103
0.00013684442
0.00013618591
0.00013556836
0.00013497983
0.00013442606
0.00013389435
0.00013339309
0.00013290839
0.00013245108
0.00013200588
0.00013158585
0.0001311743
0.00013078626
0.00013040371
0.0001300434
0.0001296861
0.00012935005
0.00012901488
0.00012870029
0.00012838462
0.00012808915
0.00012779076
0.00012751248
0.00012722947
0.00012696673
0.0001266975
0.00012644882
0.00012619208
0.0001259561
0.00012571081
0.0001254863
0.00012525158
0.00012503744
0.00012481249
0.00012460784
0.00012439185
0.00012419604
0.00012398819
0.00012380066
0.00012360028
0.00012342039
0.00012322712
0.00012305399
0.00012286785
0.00012270036
0.00012252161
0.00012235863
0.00012218751
0.00012202814
0.00012186459
0.00012170844
0.0001215519
0.0001213991
0.00012124865
0.0001210996
0.00012095428
0.00012080933
0.00012066844
0.00012052752
0.00012039092
0.0001202535
0.00012012141
0.00011998683
0.00011985941
0.00011972731
0.00011960429
0.00011947479
0.00011935558
0.000119229
0.00011911298
0.00011898949
0.00011887638
0.0001187558
0.00011864563
0.00011852753
0.00011842067
0.00011830394
0.00011820231
0.00011808327
0.00011799151
0.0001178659
0.00011778477
0.00011765581
0.00011758175
0.00011744958
0.00011739166
0.00011727182
0.00011709412
0.00011709849
0.0001488914
0.0001471283
0.00014558638
0.00014422039
0.00014299471
0.00014188646
0.00014087378
0.00013994503
0.00013908464
0.00013828756
0.000137541
0.00013684439
0.00013618588
0.00013556833
0.00013497979
0.00013442602
0.00013389431
0.00013339305
0.00013290835
0.00013245103
0.00013200583
0.0001315858
0.00013117425
0.00013078621
0.00013040366
0.00013004335
0.00012968605
0.00012935001
0.00012901483
0.00012870024
0.00012838458
0.00012808911
0.00012779072
0.00012751245
0.00012722944
0.0001269667
0.00012669748
0.0001264488
0.00012619206
0.00012595609
0.0001257108
0.00012548629
0.00012525157
0.00012503744
0.00012481249
0.00012460785
0.00012439186
0.00012419605
0.0001239882
0.00012380068
0.0001236003
0.00012342041
0.00012322715
0.00012305402
0.00012286788
0.00012270039
0.00012252165
0.00012235866
0.00012218755
0.00012202818
0.00012186463
0.00012170848
0.00012155194
0.00012139914
0.0001212487
0.00012109965
0.00012095432
0.00012080938
0.00012066849
0.00012052757
0.00012039097
0.00012025355
0.00012012146
0.00011998688
0.00011985946
0.00011972736
0.00011960434
0.00011947484
0.00011935563
0.00011922905
0.00011911303
0.00011898954
0.00011887643
0.00011875585
0.00011864568
0.00011852759
0.00011842073
0.00011830399
0.00011820236
0.00011808332
0.00011799156
0.00011786596
0.00011778482
0.00011765586
0.0001175818
0.00011744963
0.00011739171
0.00011727187
0.00011709417
0.00011709854
0.0001488914
0.0001471283
0.00014558638
0.00014422039
0.00014299471
0.00014188646
0.00014087377
0.00013994502
0.00013908463
0.00013828755
0.00013754099
0.00013684438
0.00013618587
0.00013556832
0.00013497978
0.00013442601
0.0001338943
0.00013339304
0.00013290834
0.00013245102
0.00013200582
0.00013158579
0.00013117424
0.00013078619
0.00013040365
0.00013004334
0.00012968604
0.00012935
0.00012901483
0.00012870024
0.00012838458
0.00012808912
0.00012779073
0.00012751246
0.00012722945
0.00012696672
0.00012669749
0.00012644882
0.00012619209
0.00012595612
0.00012571083
0.00012548632
0.00012525161
0.00012503748
0.00012481253
0.0001246079
0.00012439191
0.00012419611
0.00012398826
0.00012380073
0.00012360036
0.00012342047
0.00012322721
0.00012305407
0.00012286794
0.00012270045
0.00012252171
0.00012235872
0.00012218761
0.00012202824
0.00012186469
0.00012170854
0.000121552
0.0001213992
0.00012124875
0.00012109971
0.00012095438
0.00012080943
0.00012066854
0.00012052762
0.00012039102
0.00012025361
0.00012012151
0.00011998693
0.00011985951
0.00011972741
0.0001196044
0.0001194749
0.00011935568
0.0001192291
0.00011911309
0.00011898959
0.00011887648
0.0001187559
0.00011864573
0.00011852764
0.00011842078
0.00011830404
0.00011820241
0.00011808337
0.00011799162
0.00011786601
0.00011778487
0.00011765591
0.00011758185
0.00011744968
0.00011739177
0.00011727192
0.00011709423
0.00011709859
0.0001488914
0.0001471283
0.00014558638
0.00014422039
0.00014299471
0.00014188645
0.00014087377
0.00013994502
0.00013908462
0.00013828754
0.00013754098
0.00013684436
0.00013618586
0.0001355683
0.00013497976
0.00013442599
0.00013389428
0.00013339301
0.00013290831
0.00013245099
0.00013200579
0.00013158576
0.00013117421
0.00013078617
0.00013040363
0.00013004332
0.00012968602
0.00012934998
0.00012901482
0.00012870023
0.00012838457
0.00012808911
0.00012779073
0.00012751247
0.00012722946
0.00012696673
0.00012669752
0.00012644885
0.00012619212
0.00012595616
0.00012571088
0.00012548638
0.00012525167
0.00012503754
0.0001248126
0.00012460797
0.00012439198
0.00012419618
0.00012398833
0.00012380081
0.00012360044
0.00012342055
0.00012322729
0.00012305416
0.00012286803
0.00012270054
0.0001225218
0.00012235881
0.00012218771
0.00012202834
0.00012186478
0.00012170864
0.0001215521
0.0001213993
0.00012124885
0.00012109981
0.00012095448
0.00012080953
0.00012066864
0.00012052773
0.00012039112
0.00012025371
0.00012012162
0.00011998704
0.00011985961
0.00011972752
0.0001196045
0.000119475
0.00011935579
0.00011922921
0.00011911319
0.0001189897
0.00011887659
0.000118756
0.00011864584
0.00011852774
0.00011842088
0.00011830415
0.00011820252
0.00011808348
0.00011799172
0.00011786611
0.00011778498
0.00011765602
0.00011758196
0.00011744979
0.00011739187
0.00011727203
0.00011709433
0.0001170987
0.0001488914
0.0001471283
0.00014558638
0.00014422039
0.0001429947
0.00014188645
0.00014087376
0.00013994501
0.00013908462
0.00013828753
0.00013754097
0.00013684435
0.00013618584
0.00013556829
0.00013497975
0.00013442597
0.00013389426
0.000133393
0.00013290829
0.00013245098
0.00013200578
0.00013158575
0.0001311742
0.00013078616
0.00013040362
0.00013004331
0.00012968601
0.00012934998
0.00012901482
0.00012870024
0.00012838458
0.00012808913
0.00012779075
0.0001275125
0.0001272295
0.00012696678
0.00012669756
0.0001264489
0.00012619218
0.00012595622
0.00012571095
0.00012548645
0.00012525175
0.00012503763
0.00012481269
0.00012460806
0.00012439208
0.00012419628
0.00012398844
0.00012380092
0.00012360055
0.00012342067
0.00012322741
0.00012305428
0.00012286815
0.00012270066
0.00012252192
0.00012235893
0.00012218783
0.00012202846
0.0001218649
0.00012170876
0.00012155222
0.00012139941
0.00012124897
0.00012109993
0.0001209546
0.00012080965
0.00012066876
0.00012052784
0.00012039124
0.00012025382
0.00012012173
0.00011998715
0.00011985973
0.00011972763
0.00011960462
0.00011947512
0.0001193559
0.00011922932
0.0001191133
0.00011898981
0.0001188767
0.00011875612
0.00011864595
0.00011852786
0.00011842099
0.00011830426
0.00011820263
0.00011808359
0.00011799183
0.00011786623
0.00011778509
0.00011765613
0.00011758207
0.0001174499
0.00011739198
0.00011727214
0.00011709445
0.00011709881
0.0001488914
0.0001471283
0.00014558638
0.00014422039
0.0001429947
0.00014188645
0.00014087376
0.00013994501
0.00013908461
0.00013828752
0.00013754096
0.00013684434
0.00013618583
0.00013556827
0.00013497973
0.00013442596
0.00013389424
0.00013339298
0.00013290827
0.00013245096
0.00013200576
0.00013158573
0.00013117418
0.00013078614
0.0001304036
0.0001300433
0.00012968601
0.00012934998
0.00012901482
0.00012870024
0.00012838459
0.00012808915
0.00012779078
0.00012751253
0.00012722954
0.00012696683
0.00012669762
0.00012644897
0.00012619226
0.00012595631
0.00012571104
0.00012548655
0.00012525185
0.00012503773
0.0001248128
0.00012460818
0.0001243922
0.00012419641
0.00012398857
0.00012380105
0.00012360069
0.0001234208
0.00012322755
0.00012305442
0.00012286829
0.00012270081
0.00012252206
0.00012235908
0.00012218797
0.0001220286
0.00012186505
0.00012170891
0.00012155236
0.00012139956
0.00012124912
0.00012110007
0.00012095475
0.0001208098
0.00012066891
0.00012052799
0.00012039139
0.00012025397
0.00012012188
0.0001199873
0.00011985988
0.00011972778
0.00011960476
0.00011947527
0.00011935605
0.00011922947
0.00011911345
0.00011898996
0.00011887685
0.00011875627
0.0001186461
0.00011852801
0.00011842114
0.00011830441
0.00011820278
0.00011808374
0.00011799198
0.00011786638
0.00011778524
0.00011765628
0.00011758222
0.00011745005
0.00011739214
0.00011727229
0.0001170946
0.00011709896
0.0001488914
0.0001471283
0.00014558638
0.00014422039
0.0001429947
0.00014188645
0.00014087375
0.000139945
0.0001390846
0.00013828752
0.00013754095
0.00013684433
0.00013618582
0.00013556826
0.00013497971
0.00013442594
0.00013389422
0.00013339296
0.00013290826
0.00013245094
0.00013200574
0.00013158571
0.00013117417
0.00013078613
0.00013040359
0.00013004329
0.000129686
0.00012934998
0.00012901483
0.00012870026
0.00012838462
0.00012808918
0.00012779082
0.00012751258
0.0001272296
0.00012696689
0.0001266977
0.00012644905
0.00012619235
0.00012595641
0.00012571115
0.00012548667
0.00012525198
0.00012503787
0.00012481295
0.00012460833
0.00012439235
0.00012419657
0.00012398873
0.00012380122
0.00012360086
0.00012342097
0.00012322772
0.00012305459
0.00012286847
0.00012270098
0.00012252224
0.00012235926
0.00012218815
0.00012202878
0.00012186522
0.00012170909
0.00012155253
0.00012139975
0.00012124929
0.00012110026
0.00012095491
0.00012080998
0.00012066908
0.00012052817
0.00012039156
0.00012025415
0.00012012205
0.00011998748
0.00011986004
0.00011972796
0.00011960493
0.00011947544
0.00011935622
0.00011922964
0.00011911362
0.00011899013
0.00011887702
0.00011875644
0.00011864627
0.00011852817
0.00011842132
0.00011830457
0.00011820295
0.00011808391
0.00011799215
0.00011786655
0.00011778541
0.00011765645
0.00011758239
0.00011745022
0.00011739231
0.00011727246
0.00011709476
0.00011709913
0.00014889137
0.00014712834
0.00014558633
0.00014422045
0.00014299463
0.00014188652
0.00014087367
0.00013994508
0.00013908452
0.00013828758
0.00013754088
0.00013684437
0.00013618577
0.00013556825
0.00013497971
0.00013442587
0.00013389428
0.00013339283
0.00013290837
0.00013245076
0.00013200589
0.00013158551
0.00013117431
0.00013078596
0.0001304037
0.0001300432
0.00012968605
0.00012934997
0.00012901483
0.00012870031
0.00012838461
0.00012808924
0.00012779087
0.00012751259
0.00012722976
0.00012696682
0.000126698
0.0001264489
0.00012619275
0.00012595624
0.00012571157
0.00012548655
0.00012525235
0.00012503783
0.00012481331
0.00012460827
0.00012439284
0.0001241963
0.00012398953
0.00012380061
0.00012360201
0.00012342012
0.00012322895
0.00012305394
0.00012286915
0.00012270125
0.00012252162
0.00012236117
0.00012218566
0.00012203269
0.00012186077
0.00012171478
0.00012154659
0.00012140655
0.00012124267
0.00012110731
0.0001209484
0.00012081668
0.00012066304
0.00012053441
0.00012038587
0.00012026023
0.00012011634
0.00011999368
0.00011985421
0.00011973415
0.00011959937
0.00011948099
0.0001193517
0.00011923374
0.00011911092
0.00011899216
0.00011887649
0.00011875631
0.00011864779
0.00011852621
0.0001184242
0.00011830227
0.00011820424
0.00011808606
0.00011798616
0.00011787686
0.00011777331
0.00011766964
0.00011756693
0.0001174668
0.00011736009
0.00011725608
0.00011729788
0.00011687498
0.00014889137
0.00014712834
0.00014558633
0.00014422045
0.00014299463
0.00014188652
0.00014087367
0.00013994507
0.00013908451
0.00013828757
0.00013754087
0.00013684436
0.00013618576
0.00013556824
0.00013497969
0.00013442585
0.00013389426
0.00013339281
0.00013290834
0.00013245074
0.00013200586
0.00013158549
0.00013117429
0.00013078595
0.00013040369
0.00013004319
0.00012968605
0.00012934997
0.00012901484
0.00012870033
0.00012838464
0.00012808928
0.00012779092
0.00012751266
0.00012722984
0.00012696691
0.0001266981
0.00012644902
0.00012619287
0.00012595638
0.00012571172
0.00012548671
0.00012525253
0.00012503801
0.00012481349
0.00012460846
0.00012439305
0.00012419651
0.00012398975
0.00012380082
0.00012360223
0.00012342034
0.00012322917
0.00012305417
0.00012286938
0.00012270148
0.00012252185
0.0001223614
0.00012218588
0.00012203292
0.00012186099
0.00012171502
0.00012154681
0.00012140678
0.00012124289
0.00012110755
0.00012094862
0.00012081691
0.00012066326
0.00012053463
0.00012038609
0.00012026045
0.00012011656
0.00011999391
0.00011985443
0.00011973437
0.00011959959
0.00011948122
0.00011935192
0.00011923396
0.00011911114
0.00011899239
0.00011887671
0.00011875653
0.00011864801
0.00011852643
0.00011842442
0.00011830249
0.00011820446
0.00011808628
0.00011798638
0.00011787708
0.00011777352
0.00011766986
0.00011756715
0.00011746702
0.00011736031
0.0001172563
0.00011729811
0.00011687521
0.0001488914
0.0001471283
0.00014558638
0.00014422038
0.0001429947
0.00014188644
0.00014087374
0.00013994499
0.00013908458
0.00013828749
0.00013754092
0.00013684429
0.00013618577
0.00013556821
0.00013497966
0.00013442588
0.00013389416
0.00013339289
0.00013290818
0.00013245087
0.00013200567
0.00013158564
0.0001311741
0.00013078607
0.00013040355
0.00013004326
0.00012968599
0.00012934999
0.00012901486
0.00012870032
0.00012838471
0.0001280893
0.00012779097
0.00012751277
0.00012722982
0.00012696716
0.000126698
0.00012644939
0.00012619273
0.00012595682
0.0001257116
0.00012548715
0.00012525249
0.0001250384
0.00012481351
0.00012460891
0.00012439296
0.00012419718
0.00012398937
0.00012380186
0.00012360151
0.00012342163
0.00012322839
0.00012305526
0.00012286914
0.00012270166
0.00012252292
0.00012235994
0.00012218882
0.00012202947
0.0001218659
0.00012170978
0.00012155321
0.00012140043
0.00012124996
0.00012110094
0.00012095559
0.00012081066
0.00012066975
0.00012052885
0.00012039223
0.00012025483
0.00012012272
0.00011998815
0.00011986071
0.00011972863
0.0001196056
0.0001194761
0.00011935688
0.0001192303
0.00011911429
0.00011899079
0.00011887768
0.00011875709
0.00011864693
0.00011852883
0.00011842198
0.00011830523
0.00011820361
0.00011808457
0.00011799281
0.00011786721
0.00011778607
0.00011765711
0.00011758305
0.00011745088
0.00011739297
0.00011727312
0.00011709544
0.00011709979
0.0001488914
0.0001471283
0.00014558637
0.00014422039
0.00014299469
0.00014188644
0.00014087374
0.00013994498
0.00013908457
0.00013828748
0.00013754091
0.00013684428
0.00013618575
0.00013556818
0.00013497963
0.00013442585
0.00013389413
0.00013339286
0.00013290815
0.00013245083
0.00013200564
0.00013158561
0.00013117407
0.00013078605
0.00013040353
0.00013004325
0.00012968598
0.00012934999
0.00012901487
0.00012870034
0.00012838474
0.00012808935
0.00012779104
0.00012751285
0.00012722992
0.00012696727
0.00012669813
0.00012644954
0.00012619289
0.000125957
0.00012571179
0.00012548735
0.00012525271
0.00012503863
0.00012481375
0.00012460916
0.00012439321
0.00012419744
0.00012398963
0.00012380213
0.00012360178
0.00012342191
0.00012322867
0.00012305555
0.00012286942
0.00012270194
0.0001225232
0.00012236022
0.00012218911
0.00012202975
0.00012186619
0.00012171005
0.0001215535
0.00012140071
0.00012125025
0.00012110121
0.00012095587
0.00012081093
0.00012067003
0.00012052912
0.00012039251
0.0001202551
0.000120123
0.00011998842
0.00011986099
0.0001197289
0.00011960587
0.00011947638
0.00011935715
0.00011923058
0.00011911456
0.00011899106
0.00011887795
0.00011875737
0.0001186472
0.0001185291
0.00011842225
0.00011830551
0.00011820388
0.00011808484
0.00011799308
0.00011786748
0.00011778634
0.00011765738
0.00011758332
0.00011745115
0.00011739324
0.0001172734
0.00011709569
0.00011710006
0.00014889137
0.00014712834
0.00014558632
0.00014422045
0.00014299462
0.00014188651
0.00014087365
0.00013994505
0.00013908448
0.00013828754
0.00013754083
0.00013684431
0.0001361857
0.00013556817
0.00013497962
0.00013442577
0.00013389417
0.00013339271
0.00013290825
0.00013245064
0.00013200577
0.00013158539
0.0001311742
0.00013078586
0.00013040362
0.00013004314
0.00012968602
0.00012934997
0.00012901486
0.00012870039
0.00012838473
0.00012808942
0.0001277911
0.00012751288
0.00012723011
0.00012696724
0.00012669848
0.00012644944
0.00012619335
0.0001259569
0.00012571228
0.00012548732
0.00012525317
0.00012503869
0.0001248142
0.0001246092
0.0001243938
0.00012419728
0.00012399054
0.00012380163
0.00012360304
0.00012342117
0.00012323
0.00012305501
0.00012287022
0.00012270233
0.0001225227
0.00012236224
0.00012218673
0.00012203376
0.00012186185
0.00012171585
0.00012154767
0.00012140761
0.00012124374
0.00012110837
0.00012094947
0.00012081773
0.0001206641
0.00012053545
0.00012038692
0.00012026127
0.00012011739
0.00011999472
0.00011985525
0.00011973518
0.00011960041
0.00011948202
0.00011935274
0.00011923477
0.00011911195
0.00011899319
0.00011887752
0.00011875733
0.00011864881
0.00011852723
0.00011842522
0.00011830329
0.00011820526
0.00011808708
0.00011798719
0.00011787788
0.00011777433
0.00011767066
0.00011756796
0.00011746782
0.00011736112
0.00011725711
0.00011729891
0.00011687601
0.00014889137
0.00014712834
0.00014558633
0.00014422044
0.00014299462
0.0001418865
0.00014087365
0.00013994504
0.00013908447
0.00013828752
0.00013754081
0.00013684429
0.00013618567
0.00013556814
0.00013497958
0.00013442574
0.00013389413
0.00013339267
0.0001329082
0.00013245059
0.00013200572
0.00013158535
0.00013117415
0.00013078582
0.00013040358
0.00013004311
0.00012968599
0.00012934995
0.00012901486
0.0001287004
0.00012838476
0.00012808946
0.00012779116
0.00012751297
0.00012723022
0.00012696736
0.00012669862
0.00012644961
0.00012619354
0.00012595711
0.00012571251
0.00012548757
0.00012525343
0.00012503896
0.00012481449
0.0001246095
0.00012439411
0.0001241976
0.00012399086
0.00012380195
0.00012360338
0.00012342149
0.00012323034
0.00012305534
0.00012287056
0.00012270266
0.00012252303
0.00012236259
0.00012218706
0.00012203411
0.00012186217
0.0001217162
0.00012154798
0.00012140795
0.00012124406
0.00012110871
0.00012094978
0.00012081807
0.00012066442
0.00012053579
0.00012038724
0.0001202616
0.0001201177
0.00011999505
0.00011985557
0.00011973551
0.00011960073
0.00011948235
0.00011935306
0.00011923509
0.00011911227
0.00011899351
0.00011887783
0.00011875765
0.00011864913
0.00011852755
0.00011842554
0.00011830361
0.00011820558
0.0001180874
0.0001179875
0.0001178782
0.00011777464
0.00011767098
0.00011756827
0.00011746814
0.00011736143
0.00011725743
0.00011729923
0.00011687633
0.0001488914
0.0001471283
0.00014558637
0.00014422038
0.00014299468
0.00014188642
0.00014087372
0.00013994496
0.00013908454
0.00013828744
0.00013754085
0.00013684421
0.00013618568
0.0001355681
0.00013497953
0.00013442574
0.00013389401
0.00013339273
0.00013290802
0.00013245069
0.0001320055
0.00013158546
0.00013117394
0.00013078592
0.00013040341
0.00013004315
0.00012968591
0.00012934994
0.00012901486
0.00012870037
0.00012838482
0.00012808948
0.00012779123
0.00012751309
0.00012723023
0.00012696764
0.00012669858
0.00012645005
0.00012619347
0.00012595763
0.00012571248
0.00012548809
0.0001252535
0.00012503946
0.00012481461
0.00012461005
0.00012439414
0.00012419839
0.0001239906
0.0001238031
0.00012360278
0.0001234229
0.00012322968
0.00012305655
0.00012287044
0.00012270295
0.00012252421
0.00012236124
0.00012219011
0.00012203077
0.00012186718
0.00012171107
0.00012155448
0.00012140173
0.00012125122
0.00012110223
0.00012095684
0.00012081194
0.000120671
0.00012053012
0.00012039347
0.00012025608
0.00012012396
0.0001199894
0.00011986195
0.00011972987
0.00011960683
0.00011947735
0.00011935811
0.00011923154
0.00011911552
0.00011899202
0.00011887891
0.00011875832
0.00011864816
0.00011853005
0.00011842321
0.00011830645
0.00011820484
0.00011808579
0.00011799404
0.00011786843
0.00011778729
0.00011765834
0.00011758427
0.00011745211
0.00011739419
0.00011727434
0.00011709667
0.00011710101
0.00014889137
0.00014712834
0.00014558632
0.00014422044
0.00014299462
0.00014188649
0.00014087364
0.00013994502
0.00013908445
0.00013828749
0.00013754077
0.00013684424
0.00013618561
0.00013556807
0.00013497951
0.00013442565
0.00013389403
0.00013339257
0.00013290809
0.00013245048
0.00013200559
0.00013158523
0.00013117403
0.00013078571
0.00013040347
0.00013004301
0.00012968591
0.00012934989
0.00012901483
0.0001287004
0.0001283848
0.00012808954
0.00012779129
0.00012751314
0.00012723044
0.00012696764
0.00012669895
0.00012645
0.00012619397
0.00012595759
0.00012571304
0.00012548813
0.00012525404
0.0001250396
0.00012481516
0.00012461018
0.00012439482
0.00012419833
0.0001239916
0.00012380271
0.00012360413
0.00012342226
0.0001232311
0.00012305611
0.00012287132
0.00012270343
0.00012252381
0.00012236334
0.00012218784
0.00012203484
0.00012186295
0.00012171692
0.00012154877
0.00012140867
0.00012124483
0.00012110942
0.00012095055
0.00012081878
0.00012066518
0.0001205365
0.00012038799
0.00012026231
0.00012011845
0.00011999576
0.00011985631
0.00011973622
0.00011960146
0.00011948306
0.00011935379
0.0001192358
0.00011911299
0.00011899422
0.00011887856
0.00011875837
0.00011864985
0.00011852827
0.00011842626
0.00011830433
0.0001182063
0.00011808811
0.00011798823
0.0001178789
0.00011777537
0.00011767169
0.000117569
0.00011746885
0.00011736216
0.00011725814
0.00011729994
0.00011687706
0.0001488914
0.00014712829
0.00014558637
0.00014422038
0.00014299468
0.00014188641
0.0001408737
0.00013994493
0.00013908451
0.0001382874
0.00013754081
0.00013684415
0.00013618561
0.00013556802
0.00013497944
0.00013442564
0.0001338939
0.00013339261
0.00013290788
0.00013245056
0.00013200534
0.00013158532
0.00013117378
0.00013078577
0.00013040327
0.00013004302
0.0001296858
0.00012934986
0.0001290148
0.00012870035
0.00012838483
0.00012808954
0.00012779134
0.00012751326
0.00012723046
0.00012696793
0.00012669892
0.00012645045
0.00012619393
0.00012595814
0.00012571305
0.0001254887
0.00012525415
0.00012504015
0.00012481534
0.0001246108
0.00012439491
0.00012419917
0.0001239914
0.00012380391
0.0001236036
0.00012342372
0.00012323051
0.00012305738
0.00012287127
0.00012270378
0.00012252504
0.00012236206
0.00012219093
0.00012203159
0.00012186799
0.00012171189
0.00012155528
0.00012140253
0.00012125202
0.00012110302
0.00012095764
0.00012081273
0.00012067179
0.0001205309
0.00012039426
0.00012025687
0.00012012474
0.00011999018
0.00011986273
0.00011973065
0.0001196076
0.00011947811
0.00011935889
0.00011923231
0.00011911628
0.00011899279
0.00011887968
0.00011875908
0.00011864893
0.00011853082
0.00011842397
0.00011830722
0.0001182056
0.00011808655
0.0001179948
0.00011786919
0.00011778805
0.00011765909
0.00011758503
0.00011745286
0.00011739495
0.0001172751
0.00011709743
0.00011710177
0.0001488914
0.0001471283
0.00014558637
0.00014422038
0.00014299467
0.00014188641
0.00014087369
0.00013994492
0.00013908449
0.00013828738
0.00013754078
0.00013684412
0.00013618557
0.00013556797
0.00013497939
0.00013442558
0.00013389383
0.00013339253
0.0001329078
0.00013245046
0.00013200525
0.00013158522
0.00013117369
0.00013078567
0.00013040318
0.00013004293
0.00012968572
0.00012934979
0.00012901475
0.00012870031
0.00012838482
0.00012808956
0.00012779138
0.00012751334
0.00012723057
0.00012696808
0.00012669911
0.00012645068
0.00012619419
0.00012595844
0.00012571337
0.00012548906
0.00012525453
0.00012504055
0.00012481575
0.00012461123
0.00012439534
0.00012419963
0.00012399185
0.00012380438
0.00012360406
0.0001234242
0.00012323097
0.00012305785
0.00012287173
0.00012270425
0.00012252551
0.00012236252
0.00012219141
0.00012203203
0.00012186847
0.00012171231
0.00012155576
0.00012140296
0.0001212525
0.00012110345
0.00012095811
0.00012081315
0.00012067225
0.00012053133
0.00012039471
0.00012025729
0.00012012519
0.00011999061
0.00011986317
0.00011973107
0.00011960804
0.00011947854
0.00011935932
0.00011923274
0.00011911672
0.00011899322
0.0001188801
0.00011875952
0.00011864935
0.00011853125
0.00011842439
0.00011830765
0.00011820603
0.00011808698
0.00011799522
0.00011786962
0.00011778848
0.00011765952
0.00011758546
0.00011745329
0.00011739538
0.00011727554
0.00011709784
0.0001171022
0.00014889137
0.00014712834
0.00014558632
0.00014422043
0.0001429946
0.00014188647
0.00014087361
0.00013994498
0.00013908439
0.00013828742
0.00013754068
0.00013684413
0.00013618549
0.00013556793
0.00013497934
0.00013442546
0.00013389382
0.00013339234
0.00013290784
0.00013245021
0.00013200531
0.00013158493
0.00013117373
0.00013078541
0.00013040318
0.00013004273
0.00012968566
0.00012934968
0.00012901466
0.00012870029
0.00012838476
0.00012808958
0.00012779142
0.00012751337
0.00012723078
0.00012696809
0.00012669952
0.00012645067
0.00012619475
0.00012595847
0.00012571401
0.00012548919
0.00012525517
0.00012504079
0.0001248164
0.00012461147
0.00012439615
0.00012419968
0.00012399297
0.00012380409
0.00012360553
0.00012342366
0.00012323251
0.00012305751
0.00012287273
0.00012270483
0.0001225252
0.00012236473
0.00012218922
0.00012203622
0.00012186433
0.00012171829
0.00012155013
0.00012141002
0.00012124619
0.00012111077
0.00012095189
0.00012082012
0.00012066651
0.00012053783
0.00012038931
0.00012026363
0.00012011977
0.00011999707
0.00011985762
0.00011973752
0.00011960277
0.00011948436
0.00011935509
0.0001192371
0.00011911429
0.00011899552
0.00011887985
0.00011875965
0.00011865114
0.00011852955
0.00011842755
0.00011830561
0.00011820759
0.00011808939
0.00011798951
0.00011788019
0.00011777666
0.00011767297
0.00011757028
0.00011747013
0.00011736345
0.00011725942
0.00011730122
0.00011687835
0.0001488914
0.00014712829
0.00014558637
0.00014422037
0.00014299466
0.00014188639
0.00014087367
0.00013994489
0.00013908445
0.00013828732
0.00013754071
0.00013684404
0.00013618547
0.00013556786
0.00013497926
0.00013442543
0.00013389366
0.00013339234
0.0001329076
0.00013245024
0.00013200502
0.00013158497
0.00013117343
0.00013078541
0.00013040291
0.00013004268
0.00012968548
0.00012934957
0.00012901457
0.00012870018
0.00012838474
0.00012808954
0.00012779144
0.00012751348
0.0001272308
0.00012696839
0.00012669952
0.00012645117
0.00012619478
0.00012595911
0.00012571412
0.00012548986
0.0001252554
0.00012504146
0.00012481671
0.00012461222
0.00012439637
0.00012420066
0.00012399291
0.00012380543
0.00012360513
0.00012342526
0.00012323204
0.00012305891
0.0001228728
0.0001227053
0.00012252656
0.00012236358
0.00012219243
0.00012203309
0.00012186947
0.00012171338
0.00012155675
0.00012140401
0.00012125347
0.00012110449
0.00012095908
0.00012081418
0.00012067322
0.00012053234
0.00012039568
0.0001202583
0.00012012616
0.0001199916
0.00011986413
0.00011973206
0.00011960901
0.00011947952
0.00011936029
0.00011923371
0.00011911768
0.00011899418
0.00011888108
0.00011876048
0.00011865032
0.00011853221
0.00011842537
0.00011830861
0.000118207
0.00011808794
0.00011799619
0.00011787059
0.00011778945
0.00011766049
0.00011758643
0.00011745426
0.00011739635
0.0001172765
0.00011709883
0.00011710317
0.00014889137
0.00014712834
0.00014558632
0.00014422043
0.00014299459
0.00014188646
0.00014087358
0.00013994495
0.00013908435
0.00013828736
0.00013754061
0.00013684404
0.00013618538
0.0001355678
0.00013497919
0.00013442529
0.00013389363
0.00013339213
0.0001329076
0.00013244995
0.00013200503
0.00013158464
0.00013117343
0.00013078509
0.00013040286
0.00013004242
0.00012968537
0.00012934941
0.00012901442
0.0001287001
0.00012838463
0.00012808953
0.00012779145
0.00012751349
0.00012723101
0.00012696842
0.00012669995
0.00012645121
0.0001261954
0.00012595921
0.00012571484
0.00012549009
0.00012525614
0.00012504181
0.00012481747
0.00012461257
0.00012439727
0.00012420082
0.00012399413
0.00012380526
0.0001236067
0.00012342483
0.00012323368
0.00012305868
0.00012287389
0.00012270598
0.00012252636
0.00012236587
0.00012219037
0.00012203735
0.00012186546
0.0001217194
0.00012155125
0.00012141112
0.0001212473
0.00012111186
0.00012095299
0.0001208212
0.0001206676
0.0001205389
0.00012039039
0.0001202647
0.00012012084
0.00011999813
0.00011985869
0.00011973858
0.00011960383
0.00011948541
0.00011935614
0.00011923814
0.00011911534
0.00011899656
0.00011888089
0.0001187607
0.00011865219
0.0001185306
0.00011842859
0.00011830665
0.00011820863
0.00011809044
0.00011799056
0.00011788123
0.0001177777
0.00011767401
0.00011757133
0.00011747117
0.00011736449
0.00011726046
0.00011730226
0.00011687939
0.0001488914
0.00014712829
0.00014558637
0.00014422036
0.00014299465
0.00014188637
0.00014087364
0.00013994485
0.0001390844
0.00013828725
0.00013754063
0.00013684394
0.00013618535
0.00013556771
0.00013497909
0.00013442524
0.00013389344
0.0001333921
0.00013290732
0.00013244995
0.00013200469
0.00013158463
0.00013117307
0.00013078504
0.00013040253
0.00013004231
0.00012968511
0.00012934924
0.00012901427
0.00012869993
0.00012838456
0.00012808944
0.00012779144
0.00012751358
0.00012723102
0.00012696874
0.0001267
0.00012645177
0.0001261955
0.00012595993
0.00012571505
0.00012549088
0.00012525649
0.00012504261
0.00012481791
0.00012461345
0.00012439763
0.00012420194
0.0001239942
0.00012380673
0.00012360643
0.00012342655
0.00012323334
0.0001230602
0.00012287408
0.00012270658
0.00012252782
0.00012236484
0.00012219368
0.00012203434
0.00012187071
0.00012171461
0.00012155797
0.00012140523
0.00012125469
0.00012110569
0.00012096028
0.00012081537
0.00012067442
0.00012053353
0.00012039687
0.00012025947
0.00012012734
0.00011999277
0.00011986531
0.00011973323
0.00011961017
0.00011948068
0.00011936145
0.00011923487
0.00011911884
0.00011899534
0.00011888223
0.00011876163
0.00011865147
0.00011853336
0.00011842651
0.00011830976
0.00011820815
0.00011808909
0.00011799734
0.00011787173
0.0001177906
0.00011766164
0.00011758758
0.0001174554