/*--------------------------------*- C++ -*----------------------------------*\
| =========                 |                                                 |
| \\      /  F ield         | OpenFOAM: The Open Source CFD Toolbox           |
|  \\    /   O peration     | Version:  2406                                  |
|   \\  /    A nd           | Website:  www.openfoam.com                      |
|    \\/     M anipulation  |                                                 |
\*---------------------------------------------------------------------------*/
FoamFile
{
    version     2.0;
    format      ascii;
    arch        "LSB;label=32;scalar=64";
    class       volScalarField;
    location    "900";
    object      omega;
}
// * * * * * * * * * * * * * * * * * * * * * * * * * * * * * * * * * * * * * //

dimensions      [0 0 -1 0 0 0 0];

internalField   nonuniform List<scalar> 
16045
(
367.89
320.04481
283.08095
253.69507
229.79194
209.97536
193.28824
179.04378
166.74834
156.02449
146.59529
138.23431
130.77714
124.07737
118.03415
112.54601
107.55072
102.97305
98.775838
94.899408
91.323932
87.998902
84.917198
82.033452
79.350434
76.825247
74.468796
72.238818
70.15325
68.16915
66.310796
64.533584
62.86772
61.266173
59.764844
58.313664
56.954118
55.63259
54.396125
53.187123
52.058226
50.947468
49.913172
48.888652
47.938031
46.989585
46.113375
45.232337
44.42263
43.601568
42.851577
42.084075
41.387943
40.668436
40.02108
39.344715
38.741709
38.104231
37.541698
36.939363
36.413898
35.843395
35.351991
34.810381
34.35038
33.835043
33.404082
32.912676
32.508649
32.039073
31.6601
31.210459
30.854855
30.423441
30.089693
29.674957
29.361703
28.962238
28.66825
28.282775
28.006942
27.634287
27.375603
27.014696
26.77225
26.422107
26.195068
25.854786
25.642401
25.311144
25.112725
24.789723
24.604642
24.289182
24.116865
23.808284
23.648208
23.34589
23.197574
22.833724
367.89
320.04477
283.08086
253.69493
229.79176
209.97514
193.28799
179.0435
166.74803
156.02416
146.59493
138.23394
130.77676
124.07697
118.03374
112.54559
107.5503
102.97262
98.775409
94.898977
91.323502
87.998473
84.916775
82.033034
79.350024
76.824846
74.468406
72.238441
70.152887
68.168802
66.310466
64.533271
62.867426
61.265898
59.764589
58.313431
56.953905
55.632398
54.395953
53.186971
52.058094
50.947355
49.913076
48.888574
47.937968
46.989538
46.113341
45.232317
44.422621
43.60157
42.851589
42.084096
41.387971
40.668472
40.021123
39.344762
38.741761
38.104287
37.541758
36.939426
36.413964
35.843463
35.352062
34.810453
34.350453
33.835118
33.404157
32.912752
32.508726
32.039149
31.660177
31.210536
30.854932
30.423518
30.08977
29.675034
29.36178
28.962315
28.668327
28.282851
28.007018
27.634362
27.375679
27.014771
26.772324
26.422181
26.195142
25.854859
25.642474
25.311217
25.112797
24.789795
24.604713
24.289253
24.116936
23.808354
23.648278
23.345959
23.197643
22.833792
367.89
320.04476
283.08084
253.6949
229.79171
209.97509
193.28792
179.04342
166.74795
156.02408
146.59485
138.23386
130.77667
124.07688
118.03365
112.5455
107.55021
102.97253
98.775323
94.898897
91.323427
87.998405
84.916715
82.032984
79.349985
76.824819
74.468392
72.238441
70.152903
68.168834
66.310514
64.533337
62.867508
61.265998
59.764707
58.313564
56.954055
55.632563
54.396132
53.187163
52.058298
50.94757
49.913301
48.888806
47.938208
46.989783
46.11359
45.232569
44.422876
43.601826
42.851845
42.084352
41.388226
40.668724
40.021373
39.34501
38.742006
38.10453
37.541997
36.939662
36.414196
35.843691
35.352287
34.810675
34.350672
33.835333
33.404369
32.912961
32.508931
32.039352
31.660376
31.210732
30.855126
30.423709
30.089959
29.675219
29.361964
28.962496
28.668505
28.283027
28.007193
27.634534
27.375849
27.014939
26.77249
26.422345
26.195305
25.85502
25.642633
25.311373
25.112952
24.789948
24.604865
24.289403
24.117085
23.808502
23.648424
23.346104
23.197787
22.833933
367.89
320.04475
283.08082
253.69487
229.79166
209.97501
193.28783
179.04331
166.74783
156.02394
146.59469
138.23369
130.77649
124.07669
118.03344
112.54528
107.54999
102.97231
98.775096
94.898669
91.323201
87.998183
84.916499
82.032776
79.349789
76.824636
74.468224
72.23829
70.152771
68.168722
66.310424
64.533269
62.867465
61.265979
59.764712
58.313594
56.954108
55.632639
54.39623
53.187283
52.058437
50.947727
49.913475
48.888996
47.938411
46.989998
46.113816
45.232804
44.423119
43.602075
42.8521
42.08461
41.388488
40.668989
40.021639
39.345278
38.742274
38.104797
37.542264
36.939928
36.414461
35.843955
35.352549
34.810935
34.35093
33.835589
33.404623
32.913212
32.509181
32.039599
31.660622
31.210975
30.855367
30.423947
30.090195
29.675453
29.362196
28.962725
28.668733
28.283253
28.007416
27.634755
27.376068
27.015156
26.772706
26.422558
26.195517
25.855229
25.642841
25.31158
25.113157
24.790151
24.605067
24.289602
24.117283
23.808698
23.648619
23.346297
23.197979
22.834122
367.89
320.04475
283.08081
253.69484
229.79163
209.97496
193.28776
179.04324
166.74774
156.02384
146.59458
138.23357
130.77636
124.07655
118.03331
112.54514
107.54985
102.97217
98.77496
94.898537
91.323079
87.998072
84.9164
82.032692
79.349722
76.824589
74.4682
72.238289
70.152796
68.168774
66.310505
64.533379
62.867605
61.266149
59.764912
58.313822
56.954365
55.632923
54.39654
53.187615
52.058791
50.9481
49.913864
48.8894
47.938827
46.990424
46.11425
45.233244
44.423563
43.602521
42.852547
42.085057
41.388933
40.669432
40.022079
39.345713
38.742706
38.105224
37.542686
36.940344
36.414872
35.84436
35.352949
34.811328
34.351318
33.835971
33.405
32.913583
32.509547
32.039959
31.660977
31.211326
30.855713
30.424288
30.090532
29.675785
29.362524
28.963048
28.669053
28.283568
28.007728
27.635063
27.376373
27.015456
26.773004
26.422852
26.195808
25.855516
25.643125
25.31186
25.113436
24.790426
24.60534
24.289872
24.117551
23.808962
23.648881
23.346556
23.198236
22.834376
367.89
320.04475
283.0808
253.69482
229.79159
209.97491
193.2877
179.04316
166.74765
156.02373
146.59446
138.23343
130.77621
124.0764
118.03314
112.54497
107.54967
102.97199
98.774783
94.898364
91.322912
87.997912
84.916253
82.032559
79.349608
76.824495
74.468129
72.238245
70.15278
68.168788
66.310552
64.533459
62.867719
61.266297
59.765094
58.314038
56.954614
55.633203
54.396849
53.187952
52.059152
50.948484
49.914268
48.88982
47.939262
46.990871
46.114707
45.233709
44.424033
43.602995
42.853023
42.085534
41.38941
40.669906
40.022552
39.346183
38.743171
38.105685
37.543143
36.940796
36.415319
35.844801
35.353385
34.811759
34.351744
33.836391
33.405416
32.913993
32.509953
32.04036
31.661373
31.211716
30.8561
30.42467
30.09091
29.676158
29.362893
28.963413
28.669415
28.283925
28.008082
27.635413
27.37672
27.015799
26.773343
26.423188
26.196141
25.855846
25.643452
25.312184
25.113757
24.790743
24.605655
24.290183
24.11786
23.809268
23.649186
23.346857
23.198535
22.834671
367.89
320.04474
283.08079
253.6948
229.79156
209.97487
193.28764
179.04309
166.74756
156.02362
146.59434
138.2333
130.77607
124.07624
118.03298
112.5448
107.54951
102.97182
98.774618
94.898204
91.322761
87.997773
84.916131
82.032456
79.349528
76.824442
74.468106
72.238253
70.152825
68.16887
66.310673
64.533621
62.867924
61.266543
59.765382
58.314368
56.954983
55.633609
54.39729
53.188425
52.059656
50.949013
49.91482
48.890392
47.93985
46.991473
46.115319
45.234327
44.424657
43.603621
42.85365
42.08616
41.390033
40.670526
40.023166
39.346791
38.743774
38.10628
37.543731
36.941376
36.415892
35.845366
35.353943
34.812308
34.352286
33.836924
33.405942
32.914512
32.510464
32.040863
31.661871
31.212206
30.856584
30.425146
30.091381
29.676622
29.363352
28.963866
28.669862
28.284367
28.008519
27.635844
27.377147
27.01622
26.773761
26.4236
26.196549
25.856249
25.643852
25.312578
25.114148
24.79113
24.606038
24.290562
24.118236
23.809639
23.649555
23.347221
23.198897
22.835027
367.89
320.04474
283.08078
253.69478
229.79152
209.97482
193.28758
179.04301
166.74746
156.02351
146.59421
138.23316
130.77591
124.07608
118.0328
112.54462
107.54932
102.97163
98.774428
94.89802
91.322585
87.99761
84.915984
82.03233
79.349427
76.824368
74.468065
72.238248
70.152859
68.168947
66.310795
64.533788
62.868138
61.266806
59.765692
58.314724
56.955384
55.634053
54.397773
53.188945
52.060208
50.949594
49.915426
48.89102
47.940496
46.992132
46.115989
45.235005
44.425339
43.604306
42.854334
42.086842
41.390712
40.6712
40.023835
39.347453
38.744428
38.106926
37.544369
36.942005
36.416513
35.845978
35.354546
34.812903
34.352873
33.837502
33.406513
32.915073
32.511019
32.04141
31.662411
31.212738
30.85711
30.425665
30.091894
29.677128
29.363853
28.96436
28.670351
28.284849
28.008997
27.636315
27.377614
27.016682
26.774218
26.424052
26.196997
25.856691
25.644291
25.313012
25.114579
24.791555
24.606461
24.29098
24.118651
23.810049
23.649962
23.347624
23.199298
22.835422
367.89
320.04474
283.08076
253.69475
229.79149
209.97477
193.28752
179.04292
166.74736
156.02339
146.59408
138.233
130.77575
124.07589
118.03261
112.54442
107.54911
102.97142
98.77422
94.897816
91.322392
87.997431
84.915824
82.032192
79.349318
76.824291
74.468026
72.238251
70.152909
68.169045
66.310945
64.533992
62.868398
61.267121
59.766064
58.31515
56.955862
55.634581
54.398348
53.189562
52.060863
50.950284
49.916145
48.891763
47.941259
46.992912
46.11678
45.235805
44.426143
43.605112
42.85514
42.087645
41.39151
40.671992
40.02462
39.348229
38.745196
38.107683
37.545117
36.942742
36.41724
35.846694
35.355252
34.813598
34.353559
33.838178
33.407179
32.915729
32.511666
32.042047
31.66304
31.213358
30.857722
30.426268
30.092491
29.677716
29.364434
28.964933
28.670919
28.285408
28.009551
27.636862
27.378155
27.017215
26.774747
26.424574
26.197515
25.857202
25.644798
25.313512
25.115075
24.792045
24.606948
24.29146
24.119128
23.81052
23.65043
23.348086
23.199757
22.835875
367.89
320.04473
283.08075
253.69473
229.79145
209.97472
193.28744
179.04283
166.74725
156.02326
146.59392
138.23283
130.77556
124.07569
118.03239
112.54419
107.54887
102.97118
98.77398
94.897581
91.322166
87.997218
84.91563
82.032023
79.349179
76.824188
74.467965
72.238236
70.152944
68.169135
66.311094
64.534203
62.868671
61.267458
59.766464
58.315611
56.956384
55.635159
54.398979
53.190241
52.061585
50.951043
49.916937
48.892582
47.9421
46.993769
46.117649
45.236682
44.427025
43.605995
42.856021
42.088521
41.392381
40.672854
40.025473
39.349072
38.746028
38.108504
37.545927
36.943539
36.418026
35.847467
35.356014
34.814347
34.354298
33.838905
33.407896
32.916435
32.512363
32.042733
31.663717
31.214025
30.858381
30.426917
30.093132
29.678348
29.365059
28.965549
28.671528
28.28601
28.010147
27.637449
27.378737
27.01779
26.775317
26.425136
26.198072
25.857753
25.645344
25.314052
25.115611
24.792574
24.607473
24.291979
24.119643
23.811029
23.650936
23.348585
23.200254
22.836364
367.89
320.04472
283.08073
253.69471
229.79142
209.97466
193.28737
179.04273
166.74712
156.02311
146.59375
138.23264
130.77534
124.07546
118.03215
112.54393
107.5486
102.9709
98.773702
94.897304
91.321899
87.996964
84.915398
82.031817
79.349006
76.824053
74.467876
72.238198
70.152964
68.169217
66.311243
64.53442
62.868961
61.26782
59.766899
58.316118
56.956959
55.6358
54.39968
53.190998
52.062391
50.951893
49.917823
48.893499
47.943041
46.994729
46.118623
45.237664
44.428011
43.606982
42.857006
42.0895
41.393353
40.673817
40.026426
39.350012
38.746957
38.109419
37.546829
36.944428
36.418901
35.848328
35.356863
34.815183
34.355121
33.839714
33.408695
32.917221
32.513138
32.043496
31.66447
31.214767
30.859114
30.427639
30.093846
29.679052
29.365755
28.966235
28.672207
28.286679
28.010809
27.638103
27.379385
27.018429
26.77595
26.425761
26.198692
25.858364
25.645951
25.314651
25.116205
24.793161
24.608055
24.292554
24.120215
23.811594
23.651497
23.349139
23.200804
22.836906
367.89
320.04472
283.08073
253.69469
229.79137
209.9746
193.28728
179.04262
166.74698
156.02295
146.59356
138.23242
130.7751
124.07519
118.03186
112.54363
107.54829
102.97058
98.773374
94.896978
91.321579
87.996658
84.915112
82.031558
79.348783
76.823871
74.467743
72.238121
70.152951
68.169272
66.311373
64.534629
62.869251
61.268193
59.767354
58.316655
56.957574
55.636489
54.400438
53.191818
52.063267
50.952818
49.918788
48.894499
47.944067
46.995775
46.119683
45.238733
44.429084
43.608053
42.858074
42.090561
41.394405
40.674857
40.027454
39.351026
38.747957
38.110404
37.547799
36.945382
36.419841
35.849252
35.357773
34.816077
34.356002
33.840581
33.409548
32.918061
32.513967
32.044311
31.665275
31.215559
30.859896
30.428409
30.094607
29.679802
29.366497
28.966966
28.672931
28.287393
28.011515
27.6388
27.380075
27.01911
26.776625
26.426426
26.199352
25.859016
25.646597
25.315289
25.116838
24.793786
24.608676
24.293167
24.120824
23.812195
23.652094
23.34973
23.201391
22.837484
367.88998
320.04471
283.08071
253.69465
229.79132
209.97452
193.28717
179.04249
166.74683
156.02276
146.59334
138.23217
130.77482
124.07489
118.03153
112.54328
107.54792
102.9702
98.77299
94.896591
91.321198
87.996287
84.914761
82.031234
79.348495
76.823627
74.467554
72.237992
70.152892
68.169289
66.311474
64.534818
62.869532
61.268568
59.767824
58.317217
56.958226
55.637226
54.401253
53.192705
52.064218
50.953823
49.91984
48.895588
47.945186
46.996916
46.120839
45.239898
44.430252
43.60922
42.859235
42.091715
41.395548
40.675987
40.028569
39.352126
38.749041
38.11147
37.54885
36.946415
36.420858
35.850252
35.358757
34.817045
34.356955
33.841518
33.410472
32.918969
32.514863
32.045193
31.666145
31.216416
30.860742
30.429243
30.09543
29.680613
29.367299
28.967757
28.673713
28.288165
28.01228
27.639553
27.380822
27.019846
26.777355
26.427147
26.200067
25.859721
25.647297
25.315979
25.117524
24.794463
24.609348
24.293831
24.121483
23.812846
23.652741
23.350369
23.202026
22.83811
367.88998
320.04469
283.08069
253.69461
229.79126
209.97444
193.28706
179.04234
166.74665
156.02255
146.5931
138.23189
130.77451
124.07455
118.03116
112.54288
107.5475
102.96976
98.772538
94.896132
91.320741
87.995839
84.914332
82.030829
79.348127
76.823306
74.467289
72.237793
70.15277
68.169252
66.311529
64.534971
62.86979
61.268932
59.768295
58.317794
56.958905
55.638002
54.402119
53.193653
52.065236
50.954904
49.920972
48.896763
47.946392
46.998147
46.122084
45.241152
44.431509
43.610474
42.860483
42.092951
41.396772
40.677195
40.029762
39.3533
38.750197
38.112607
37.549969
36.947514
36.421939
35.851314
35.359803
34.818071
34.357966
33.842511
33.411451
32.919932
32.515812
32.046126
31.667066
31.217322
30.861637
30.430124
30.096301
29.681471
29.368147
28.968593
28.67454
28.28898
28.013087
27.640349
27.38161
27.020624
26.778125
26.427907
26.20082
25.860465
25.648035
25.316708
25.118246
24.795177
24.610056
24.29453
24.122177
23.813532
23.653422
23.351042
23.202695
22.838769
367.88998
320.04469
283.08067
253.69458
229.7912
209.97435
193.28694
179.04218
166.74645
156.02231
146.59282
138.23157
130.77415
124.07415
118.03073
112.54241
107.54701
102.96925
98.772007
94.89559
91.320196
87.995299
84.913807
82.030329
79.347664
76.822889
74.466933
72.237506
70.152567
68.169141
66.311522
64.535074
62.87001
61.269272
59.768758
58.318377
56.959605
55.638812
54.403031
53.194658
52.066323
50.956061
49.922186
48.898024
47.947688
46.999469
46.123422
45.242498
44.432857
43.611819
42.861818
42.094274
41.39808
40.678486
40.031034
39.354552
38.751429
38.113818
37.551159
36.948683
36.423089
35.852443
35.360913
34.819162
34.35904
33.843566
33.41249
32.920953
32.516819
32.047117
31.668044
31.218284
30.862587
30.431059
30.097225
29.682381
29.369048
28.96948
28.675418
28.289845
28.013943
27.641194
27.382447
27.02145
26.778944
26.428715
26.201621
25.861256
25.648819
25.317482
25.119015
24.795935
24.61081
24.295274
24.122916
23.814262
23.654147
23.351758
23.203407
22.83947
367.88998
320.04468
283.08064
253.69453
229.79113
209.97424
193.2868
179.042
166.74623
156.02204
146.5925
138.23121
130.77375
124.0737
118.03024
112.54188
107.54645
102.96865
98.771387
94.894952
91.31955
87.994652
84.913172
82.029715
79.347085
76.822355
74.466462
72.23711
70.15226
68.168935
66.31143
64.535106
62.870174
61.269572
59.769197
58.318954
56.960315
55.63965
54.403985
53.195718
52.067474
50.957292
49.923481
48.899371
47.949073
47.000881
46.124851
45.243935
44.434294
43.613249
42.863238
42.095679
41.399467
40.679852
40.03238
39.355874
38.75273
38.115094
37.552414
36.949914
36.424299
35.85363
35.362081
34.820308
34.360167
33.844674
33.413581
32.922025
32.517875
32.048156
31.669068
31.219292
30.863582
30.432039
30.098193
29.683335
29.36999
28.970409
28.676337
28.290751
28.01484
27.642078
27.383322
27.022313
26.779799
26.429559
26.202458
25.862081
25.649638
25.31829
25.119816
24.796727
24.611595
24.296049
24.123686
23.815022
23.654903
23.352504
23.204148
22.8402
367.88998
320.04467
283.08061
253.69448
229.79105
209.97413
193.28664
179.0418
166.74598
156.02174
146.59215
138.23081
130.77329
124.07319
118.02968
112.54128
107.54579
102.96796
98.770666
94.894205
91.318786
87.993881
84.912407
82.028966
79.346368
76.821685
74.465855
72.236581
70.151826
68.168612
66.311233
64.535046
62.870262
61.269815
59.769597
58.319512
56.961026
55.640506
54.404974
53.196829
52.068689
50.958596
49.924857
48.900804
47.950547
47.002384
46.126371
45.245462
44.435819
43.614767
42.864742
42.097165
41.400933
40.681295
40.033798
39.357267
38.754098
38.116436
37.553731
36.951206
36.425568
35.854875
35.363304
34.821508
34.361348
33.845833
33.414722
32.923147
32.518981
32.049243
31.670141
31.220347
30.864623
30.433065
30.099206
29.684333
29.370977
28.971381
28.677299
28.291699
28.015779
27.643004
27.384239
27.023218
26.780696
26.430444
26.203335
25.862947
25.650497
25.319139
25.120658
24.797558
24.612421
24.296865
24.124496
23.815822
23.655698
23.353289
23.204929
22.84097
367.88997
320.04466
283.08058
253.69442
229.79096
209.97399
193.28647
179.04158
166.7457
156.0214
146.59176
138.23035
130.77277
124.07261
118.02904
112.54059
107.54505
102.96717
98.769832
94.893335
91.317891
87.99297
84.911493
82.028062
79.345493
76.820852
74.465085
72.235891
70.151239
68.168143
66.310902
64.534868
62.870251
61.26998
59.769942
58.320038
56.961727
55.641374
54.405995
53.197987
52.069965
50.959974
49.926314
48.902324
47.952112
47.00398
46.127982
45.247079
44.437432
43.616369
42.866328
42.098729
41.402473
40.682808
40.035285
39.358725
38.755529
38.117838
37.555107
36.952553
36.426891
35.856171
35.364578
34.822758
34.362577
33.847039
33.415909
32.924313
32.520129
32.050372
31.671254
31.221442
30.865704
30.434128
30.100257
29.685367
29.371999
28.972389
28.678295
28.292681
28.01675
27.643962
27.385188
27.024154
26.781623
26.431358
26.204241
25.863841
25.651383
25.320013
25.121526
24.798414
24.61327
24.297704
24.125329
23.816644
23.656514
23.354095
23.20573
22.841758
367.88997
320.04464
283.08055
253.69436
229.79086
209.97385
193.28627
179.04133
166.74539
156.02103
146.59132
138.22984
130.7722
124.07196
118.02833
112.5398
107.54421
102.96626
98.768873
94.892329
91.316849
87.9919
84.910411
82.026981
79.344433
76.81983
74.464124
72.235012
70.150466
68.167498
66.310409
64.534544
62.870115
61.270042
59.770211
58.320515
56.962405
55.642245
54.407041
53.199192
52.071305
50.961427
49.927856
48.903935
47.953771
47.005669
46.129687
45.248787
44.439133
43.618055
42.867993
42.10037
41.404086
40.684391
40.036837
39.360246
38.757019
38.119297
37.556537
36.953953
36.428264
35.857517
35.365899
34.824053
34.36385
33.848288
33.417139
32.92552
32.521319
32.051541
31.672407
31.222576
30.866824
30.43523
30.101346
29.68644
29.373059
28.973434
28.679329
28.2937
28.017759
27.644958
27.386174
27.025127
26.782587
26.43231
26.205185
25.864773
25.652307
25.320926
25.122432
24.799309
24.614159
24.298581
24.126201
23.817505
23.65737
23.354941
23.206571
22.842587
367.88996
320.04462
283.08051
253.69429
229.79075
209.9737
193.28607
179.04105
166.74505
156.02062
146.59083
138.22928
130.77155
124.07124
118.02753
112.53892
107.54325
102.96524
98.767777
94.891172
91.315643
87.990653
84.90914
82.0257
79.343162
76.818589
74.46294
72.233909
70.149473
68.166641
66.309717
64.534042
62.869823
61.269977
59.770381
58.320924
56.963047
55.643111
54.408109
53.200442
52.072707
50.962958
49.929486
48.90564
47.955525
47.007455
46.131486
45.250587
44.440922
43.619825
42.869738
42.102084
41.405769
40.686038
40.038452
39.361824
38.758564
38.120807
37.558016
36.9554
36.429683
35.858905
35.367262
34.825388
34.365162
33.849575
33.418404
32.926762
32.522542
32.052743
31.673591
31.223741
30.867973
30.436361
30.102462
29.687538
29.374145
28.974503
28.680386
28.294742
28.01879
27.645973
27.387179
27.026117
26.783568
26.433277
26.206143
25.865718
25.653244
25.32185
25.123348
24.800213
24.615056
24.299466
24.127079
23.818372
23.658231
23.355791
23.207415
22.843417
367.88996
320.0446
283.08047
253.69422
229.79064
209.97353
193.28583
179.04076
166.74468
156.02017
146.5903
138.22866
130.77085
124.07044
118.02664
112.53794
107.54218
102.96407
98.766536
94.889855
91.314259
87.989211
84.907658
82.024193
79.341652
76.817099
74.461499
72.232544
70.148221
68.165533
66.308788
64.533321
62.869339
61.269752
59.770427
58.321247
56.96364
55.643963
54.409195
53.201737
52.074177
50.964572
49.931209
48.907445
47.957382
47.009343
46.133384
45.252481
44.4428
43.621677
42.87156
42.10387
41.407518
40.687749
40.040124
39.363456
38.76016
38.122366
37.559541
36.956891
36.431143
35.860333
35.368663
34.82676
34.36651
33.850897
33.419705
32.928039
32.5238
32.053979
31.67481
31.22494
30.869156
30.437526
30.103613
29.688672
29.375266
28.975608
28.681479
28.29582
28.019857
27.647027
27.388223
27.027147
26.784589
26.434285
26.207143
25.866705
25.654224
25.322817
25.124308
24.801162
24.615998
24.300397
24.128004
23.819287
23.65914
23.35669
23.208309
22.844299
367.88995
320.04458
283.08043
253.69414
229.79051
209.97335
193.28558
179.04043
166.74427
156.01968
146.58972
138.22798
130.77007
124.06956
118.02565
112.53685
107.54098
102.96278
98.76514
94.888363
91.312681
87.987557
84.905944
82.022434
79.339874
76.815324
74.459762
72.230878
70.146666
68.164127
66.307575
64.532338
62.868623
61.26933
59.770318
58.321461
56.964169
55.644793
54.410297
53.203081
52.07572
50.966279
49.933035
48.909359
47.959349
47.011339
46.135386
45.254473
44.444769
43.623614
42.873459
42.105728
41.409333
40.689518
40.041851
39.36514
38.761803
38.123968
37.561107
36.958419
36.432638
35.861795
35.370095
34.828162
34.367885
33.852245
33.421029
32.929338
32.525078
32.055233
31.676046
31.226154
30.870353
30.438703
30.104774
29.689815
29.376394
28.976718
28.682576
28.2969
28.020925
27.648078
27.389263
27.028172
26.785604
26.435285
26.208133
25.867681
25.65519
25.32377
25.125253
24.802093
24.616921
24.301307
24.128907
23.820177
23.660024
23.357561
23.209174
22.84515
367.88994
320.04455
283.08038
253.69405
229.79037
209.97315
193.28531
179.04008
166.74384
156.01915
146.58909
138.22725
130.76922
124.0686
118.02458
112.53565
107.53966
102.96134
98.76358
94.886686
91.310898
87.985673
84.903976
82.020398
79.337797
76.81323
74.45769
72.228863
70.144758
68.162371
66.306025
64.531042
62.867627
61.268671
59.770022
58.32154
56.964617
55.645596
54.411417
53.204482
52.077348
50.968091
49.93498
48.911396
47.961439
47.013453
46.137499
45.256568
44.446832
43.625637
42.875437
42.107655
41.411211
40.691345
40.04363
39.366871
38.763491
38.125612
37.562712
36.959984
36.43417
35.863292
35.371562
34.829598
34.369296
33.853628
33.422389
32.930674
32.526393
32.056526
31.677321
31.227408
30.871592
30.439922
30.105979
29.691003
29.377569
28.977877
28.683723
28.298032
28.022046
27.649184
27.390359
27.029254
26.786676
26.436345
26.209184
25.868719
25.656221
25.324789
25.126264
24.803093
24.617914
24.30229
24.129884
23.821143
23.660984
23.358511
23.210119
22.846081
367.88993
320.04453
283.08032
253.69396
229.79022
209.97294
193.28503
179.03971
166.74337
156.01858
146.58841
138.22646
130.76831
124.06756
118.02341
112.53434
107.53822
102.95975
98.761852
94.884819
91.308897
87.983546
84.901736
82.018061
79.335389
76.810779
74.455238
72.226451
70.142442
68.160207
66.304077
64.529373
62.866295
61.267727
59.769499
58.321459
56.964972
55.646368
54.412562
53.205954
52.079081
50.97003
49.937062
48.913575
47.963668
47.0157
46.139735
45.258775
44.448997
43.62775
42.877495
42.109655
41.413154
40.69323
40.045461
39.368647
38.765218
38.12729
37.564347
36.961576
36.435724
35.864807
35.373044
34.831046
34.370714
33.855015
33.42375
32.932006
32.527703
32.05781
31.678584
31.228648
30.872812
30.441121
30.107161
29.692163
29.378714
28.979002
28.684834
28.299124
28.023125
27.650246
27.391408
27.030287
26.787698
26.437349
26.210178
25.869698
25.65719
25.325742
25.127209
24.804023
24.618837
24.303198
24.130784
23.82203
23.661864
23.359377
23.210979
22.846927
367.88993
320.0445
283.08027
253.69386
229.79007
209.97271
193.28472
179.03932
166.74288
156.01798
146.5877
138.22561
130.76734
124.06645
118.02214
112.53293
107.53665
102.95801
98.759955
94.882755
91.306672
87.981163
84.899209
82.0154
79.332623
76.807934
74.452359
72.223586
70.139656
68.157566
66.301662
64.527259
62.864561
61.266439
59.768705
58.321189
56.965219
55.647113
54.413747
53.20752
52.080948
50.972128
49.939315
48.915926
47.966062
47.018101
46.142112
45.261109
44.451275
43.629963
42.879642
42.111733
41.415167
40.695177
40.04735
39.370478
38.766998
38.12902
37.566034
36.963219
36.43733
35.866375
35.374581
34.83255
34.372192
33.856464
33.425176
32.933407
32.529083
32.059167
31.679923
31.229966
30.874115
30.442404
30.108429
29.693415
29.379952
28.980224
28.686044
28.300318
28.024308
27.651414
27.392566
27.031431
26.788832
26.438471
26.211291
25.870798
25.658282
25.326822
25.128282
24.805084
24.619891
24.304241
24.131821
23.823055
23.662884
23.360387
23.211983
22.847917
367.88992
320.04447
283.08021
253.69376
229.78991
209.97247
193.2844
179.0389
166.74236
156.01734
146.58694
138.22472
130.7663
124.06526
118.0208
112.53141
107.53496
102.95614
98.757892
94.880497
91.30422
87.978517
84.896379
82.012396
79.329469
76.804658
74.449008
72.220211
70.136332
68.154372
66.298696
64.524619
62.862348
61.264743
59.767591
58.3207
56.965351
55.64784
54.414998
53.209221
52.082993
50.974433
49.941783
48.918489
47.968656
47.020686
46.144656
45.26359
44.453683
43.63229
42.881886
42.113894
41.417249
40.697183
40.049285
39.372345
38.768804
38.130766
37.567728
36.964861
36.438927
35.867927
35.376095
34.834024
34.373631
33.857868
33.426551
32.93475
32.5304
32.060455
31.681188
31.231204
30.875332
30.443597
30.109603
29.694565
29.381086
28.981336
28.687139
28.301394
28.025369
27.652455
27.393594
27.03244
26.789829
26.43945
26.212259
25.871749
25.659223
25.327747
25.129197
24.805984
24.620782
24.305116
24.132689
23.823909
23.66373
23.361219
23.212809
22.848728
367.8899
320.04444
283.08015
253.69365
229.78974
209.97223
193.28408
179.03847
166.74182
156.01668
146.58615
138.22379
130.76522
124.06401
118.01937
112.52981
107.53315
102.95413
98.755668
94.878049
91.301545
87.975607
84.893241
82.009034
79.325905
76.800917
74.445137
72.216265
70.132396
68.150538
66.295086
64.521356
62.859565
61.26256
59.766101
58.319962
56.965367
55.648578
54.416364
53.211118
52.085289
50.977015
49.944535
48.921327
47.971509
47.023505
46.147409
45.266258
44.456257
43.634766
42.884269
42.116183
41.419456
40.699309
40.051341
39.374333
38.770735
38.13264
37.569554
36.96664
36.440666
35.869626
35.37776
34.835655
34.375234
33.859441
33.428099
32.936272
32.5319
32.061931
31.682645
31.23264
30.876751
30.444995
30.110986
29.69593
29.382436
28.982668
28.688459
28.302697
28.02666
27.653731
27.394859
27.03369
26.791068
26.440676
26.213475
25.872951
25.660416
25.328927
25.130369
24.807143
24.621933
24.306256
24.133821
23.825029
23.664844
23.362321
23.213905
22.849808
367.88989
320.04441
283.08008
253.69353
229.78956
209.97199
193.28374
179.03803
166.74127
156.016
146.58533
138.22282
130.76409
124.06271
118.01789
112.52812
107.53125
102.952
98.753299
94.875425
91.298655
87.97244
84.889796
82.005308
79.321915
76.79668
74.440701
72.211686
70.127766
68.145967
66.290719
64.517354
62.856101
61.259799
59.764172
58.318955
56.965283
55.649378
54.417927
53.213313
52.087944
50.979985
49.947676
48.924536
47.9747
47.026628
46.150429
45.269155
44.459023
43.637398
42.886774
42.118565
41.421726
40.701472
40.05341
39.376312
38.772635
38.134465
37.571314
36.968336
36.442308
35.871214
35.379302
34.83715
34.37669
33.860856
33.42948
32.937616
32.533213
32.063212
31.683898
31.233863
30.87795
30.446167
30.112136
29.697054
29.38354
28.983749
28.689521
28.303736
28.027682
27.654732
27.395845
27.034656
26.792021
26.441609
26.214396
25.873854
25.661307
25.329801
25.131232
24.80799
24.622771
24.307078
24.134635
23.825828
23.665636
23.363098
23.214676
22.850563
367.88988
320.04438
283.08001
253.69342
229.78939
209.97173
193.28339
179.03758
166.7407
156.01531
146.58449
138.22183
130.76293
124.06137
118.01635
112.52637
107.52928
102.94977
98.750807
94.872644
91.295572
87.969033
84.886055
82.001221
79.317491
76.791926
74.435661
72.20641
70.122359
68.140549
66.285472
64.512476
62.851827
61.256355
59.761742
58.317668
56.965148
55.650342
54.419824
53.215969
52.091131
50.983514
49.951364
48.928261
47.978373
47.030196
46.153866
45.272447
44.462173
43.640408
42.889657
42.121327
41.424382
40.704027
40.055879
39.3787
38.774953
38.136716
37.573507
36.970473
36.444397
35.873255
35.381303
34.839109
34.378615
33.862744
33.431338
32.939441
32.535012
32.064981
31.685644
31.235582
30.879647
30.447839
30.113789
29.698683
29.385151
28.985337
28.691092
28.305286
28.029217
27.656246
27.397345
27.036137
26.793488
26.443058
26.215832
25.875273
25.662714
25.33119
25.132611
24.809352
24.624123
24.308413
24.135961
23.827138
23.666937
23.364383
23.215952
22.851819
367.88988
320.04435
283.07996
253.69331
229.78921
209.97148
193.28305
179.03714
166.74014
156.01461
146.58366
138.22083
130.76176
124.06002
118.01479
112.52458
107.52725
102.94748
98.748218
94.869737
91.292324
87.965414
84.882044
81.996794
79.31264
76.786648
74.429986
72.200385
70.116085
68.134166
66.279195
64.506562
62.846588
61.252108
59.758757
58.316125
56.965069
55.651646
54.422289
53.219357
52.095139
50.987886
49.955856
48.932714