/*--------------------------------*- C++ -*----------------------------------*\
| =========                 |                                                 |
| \\      /  F ield         | OpenFOAM: The Open Source CFD Toolbox           |
|  \\    /   O peration     | Version:  2406                                  |
|   \\  /    A nd           | Website:  www.openfoam.com                      |
|    \\/     M anipulation  |                                                 |
\*---------------------------------------------------------------------------*/
FoamFile
{
    version     2.0;
    format      ascii;
    arch        "LSB;label=32;scalar=64";
    class       volScalarField;
    location    "900";
    object      p;
}
// * * * * * * * * * * * * * * * * * * * * * * * * * * * * * * * * * * * * * //

dimensions      [0 2 -2 0 0 0 0];

internalField   nonuniform List<scalar> 
16045
(
1.2779519
1.2739946
1.2664064
1.2556919
1.242106
1.225623
1.2061574
1.1836792
1.1581882
1.1296766
1.0981269
1.0635266
1.0258759
0.98518931
0.94149821
0.89485469
0.84533603
0.79304879
0.73813238
0.68076268
0.62115471
0.55956502
0.4962928
0.43168007
0.36611015
0.30000494
0.23382009
0.16803886
0.1031639
0.039707704
-0.021818457
-0.080916283
-0.13711292
-0.18997307
-0.23911046
-0.28419802
-0.32497613
-0.3612584
-0.39293493
-0.41997267
-0.44241301
-0.46036684
-0.47400748
-0.48356184
-0.48930058
-0.49152765
-0.49056987
-0.48676693
-0.48046233
-0.47199525
-0.46169387
-0.44986992
-0.43681463
-0.42279579
-0.40805616
-0.39281255
-0.37725607
-0.36155271
-0.34584458
-0.33025149
-0.31487277
-0.29978911
-0.28506462
-0.27074868
-0.25687789
-0.24347777
-0.23056445
-0.21814607
-0.20622424
-0.19479509
-0.18385042
-0.17337851
-0.16336498
-0.15379338
-0.14464581
-0.1359033
-0.12754629
-0.11955487
-0.11190907
-0.10458906
-0.097575302
-0.090848691
-0.084390641
-0.078183161
-0.072208919
-0.066451272
-0.060894302
-0.055522845
-0.050322496
-0.045279663
-0.040381521
-0.035616276
-0.03097259
-0.026441735
-0.022011507
-0.017686567
-0.013427208
-0.0093501602
-0.0051318477
-0.0020879787
1.2811368
1.2781861
1.2715122
1.261484
1.2484951
1.2325817
1.2136614
1.1917019
1.1667062
1.1386683
1.1075701
1.073396
1.0361417
0.99581619
0.95244389
0.90606897
0.85675988
0.80461367
0.74975992
0.69236446
0.63263271
0.57081226
0.50719468
0.442116
0.37595588
0.30913534
0.24211239
0.17537614
0.10943894
0.044826737
-0.017932063
-0.078318817
-0.13583758
-0.1900282
-0.24047858
-0.28683604
-0.32881656
-0.36621168
-0.39889257
-0.42681121
-0.44999832
-0.46855875
-0.48266422
-0.49254428
-0.49847588
-0.50077236
-0.49977223
-0.49582852
-0.48929892
-0.48053709
-0.46988542
-0.4576691
-0.44419178
-0.42973245
-0.4145436
-0.39885046
-0.38285101
-0.36671688
-0.35059449
-0.33460694
-0.31885576
-0.30342311
-0.28837378
-0.27375733
-0.25961002
-0.24595673
-0.23281261
-0.22018474
-0.20807343
-0.19647353
-0.18537546
-0.17476621
-0.16463004
-0.15494928
-0.14570478
-0.13687649
-0.12844376
-0.12038571
-0.11268146
-0.10531035
-0.098252093
-0.091486876
-0.084995492
-0.078759374
-0.072760676
-0.066982276
-0.061407838
-0.056021788
-0.050809366
-0.045756611
-0.040850365
-0.036078448
-0.03142912
-0.026893156
-0.02245752
-0.018126224
-0.013855619
-0.009762432
-0.0054818958
-0.0023291241
1.2870327
1.2843926
1.277973
1.2680705
1.2551778
1.2393752
1.2205709
1.1987214
1.1738271
1.1458804
1.1148586
1.0807397
1.0435126
1.0031785
0.95975393
0.91327433
0.86379935
0.81141729
0.75624937
0.69845391
0.63822997
0.57582059
0.51151496
0.44564946
0.37860725
0.31081638
0.24274568
0.17489898
0.10780698
0.042017377
-0.021916931
-0.083450974
-0.14206173
-0.19726234
-0.24861585
-0.2957477
-0.33835617
-0.37622017
-0.40920393
-0.43725836
-0.4604189
-0.47880036
-0.49258887
-0.50203187
-0.50742652
-0.50910757
-0.5074351
-0.50278289
-0.49552788
-0.48604083
-0.47467886
-0.46177925
-0.44765514
-0.4325925
-0.41684855
-0.40065116
-0.38419929
-0.36766407
-0.35119036
-0.33489879
-0.31888787
-0.30323629
-0.28800521
-0.27324045
-0.25897463
-0.24522905
-0.23201556
-0.21933811
-0.20719417
-0.19557599
-0.18447172
-0.17386625
-0.16374209
-0.15407994
-0.14485934
-0.13605904
-0.1276574
-0.11963269
-0.11196333
-0.10462804
-0.097606033
-0.090877107
-0.084421708
-0.078221006
-0.072256928
-0.066512189
-0.0609703
-0.055615585
-0.05043317
-0.045409008
-0.040529808
-0.035783256
-0.031157362
-0.02664255
-0.022225169
-0.017908023
-0.013646071
-0.0095522647
-0.0052768153
-0.0021657887
1.2952744
1.2927698
1.2866277
1.2770578
1.2645255
1.249111
1.2307122
1.2092723
1.1847837
1.1572321
1.1265869
1.092817
1.0559007
1.0158285
0.97260461
0.92625191
0.87681665
0.82437355
0.76903053
0.7109333
0.65026965
0.58727338
0.52222713
0.45546425
0.38736907
0.31837552
0.24896359
0.17965374
0.11099883
0.043573725
-0.022037105
-0.085253807
-0.14551655
-0.20230137
-0.25513566
-0.30361242
-0.34740229
-0.38626268
-0.42004342
-0.44868849
-0.47223389
-0.4908019
-0.50459215
-0.51387036
-0.51895545
-0.52020593
-0.51800637
-0.51275464
-0.50485033
-0.49468486
-0.48263342
-0.46904867
-0.45425626
-0.43855199
-0.42220035
-0.40543425
-0.38845574
-0.37143738
-0.35452421
-0.33783592
-0.32146937
-0.30550105
-0.28998952
-0.27497781
-0.26049567
-0.24656155
-0.23318452
-0.22036588
-0.20810065
-0.19637879
-0.18518633
-0.1745063
-0.16431947
-0.15460505
-0.14534119
-0.13650544
-0.1280751
-0.1200275
-0.11234023
-0.1049913
-0.097959294
-0.09122345
-0.084763743
-0.078560926
-0.07259657
-0.066853074
-0.061313676
-0.055962447
-0.050784281
-0.045764895
-0.040890753
-0.036149246
-0.031528007
-0.027016985
-0.022601696
-0.018284346
-0.014016894
-0.0099138679
-0.0055935398
-0.0023953296
1.3057498
1.3033449
1.2974253
1.2881228
1.2758545
1.2607016
1.2425663
1.2213862
1.1971452
1.1698221
1.139378
1.1057717
1.0689698
1.0289496
0.98570142
0.93923277
0.8895743
0.83678499
0.78095743
0.72222318
0.6607579
0.59678601
0.53058451
0.46248588
0.39287912
0.32220915
0.25097388
0.17971879
0.10902867
0.039516763
-0.02818881
-0.093460817
-0.15569024
-0.21430449
-0.2687853
-0.31868535
-0.36364254
-0.40339082
-0.43776695
-0.46671264
-0.49027214
-0.50858547
-0.52187801
-0.53044726
-0.53464797
-0.5348763
-0.53155453
-0.52511654
-0.51599504
-0.50461076
-0.49136382
-0.47662724
-0.46074256
-0.44401716
-0.42672331
-0.40909833
-0.39134579
-0.3736375
-0.35611588
-0.33889667
-0.32207182
-0.30571231
-0.28987085
-0.27458455
-0.2598773
-0.24576191
-0.23224212
-0.21931428
-0.20696882
-0.19519159
-0.18396489
-0.17326842
-0.16308003
-0.15337634
-0.14413326
-0.13532637
-0.1269313
-0.11892392
-0.11128058
-0.10397827
-0.096994663
-0.09030828
-0.083898482
-0.077745525
-0.071830571
-0.066135693
-0.06064386
-0.055338927
-0.050205598
-0.045229417
-0.040396664
-0.035694515
-0.031110323
-0.026633635
-0.02224948
-0.017959003
-0.013714098
-0.0096259916
-0.0053358615
-0.0022020067
1.3183743
1.3160464
1.3103066
1.3012494
1.2892593
1.2744135
1.2566138
1.2357885
1.2119088
1.184941
1.1548342
1.1215328
1.0849877
1.0451591
1.0020187
0.95555492
0.90577817
0.85272722
0.79647487
0.73713422
0.67486462
0.6098775
0.54244133
0.47288565
0.40160329
0.3290507
0.25574587
0.18226318
0.1092251
0.037290622
-0.032859616
-0.10054099
-0.16508474
-0.22585903
-0.28229
-0.33388148
-0.38023194
-0.42104756
-0.45615032
-0.48548064
-0.50909431
-0.52715447
-0.53991902
-0.54772494
-0.55097065
-0.55009757
-0.54557246
-0.53787095
-0.52746338
-0.51480293
-0.50031665
-0.48439878
-0.46740658
-0.44965824
-0.43143237
-0.41296898
-0.3944713
-0.37610841
-0.35801826
-0.34031087
-0.32307173
-0.30636489
-0.29023613
-0.27471568
-0.25982089
-0.24555845
-0.23192642
-0.21891601
-0.20651307
-0.19469933
-0.18345352
-0.17275221
-0.16257054
-0.15288283
-0.14366299
-0.13488495
-0.12652291
-0.11855158
-0.11094633
-0.10368332
-0.096739605
-0.090093167
-0.083722956
-0.077608907
-0.071731938
-0.066073937
-0.060617739
-0.055347094
-0.050246621
-0.045301779
-0.040498745
-0.035824559
-0.031266367
-0.026813451
-0.022450378
-0.018178073
-0.013946885
-0.0098695884
-0.0055650608
-0.0023774507
1.333078
1.3308183
1.3252434
1.3164275
1.3047241
1.2901965
1.2727397
1.2522711
1.2287485
1.2021245
1.1723339
1.1393055
1.1029723
1.0632748
1.0201637
0.97360479
0.92358509
0.87011945
0.81325728
0.75308952
0.68975603
0.62345247
0.55443692
0.48303521
0.40964479
0.33473628
0.25885237
0.18260329
0.10665849
0.03173418
-0.041423022
-0.11205622
-0.17942126
-0.24281149
-0.30158295
-0.35517801
-0.40314608
-0.44515937
-0.48102281
-0.51067717
-0.53419527
-0.551772
-0.5637089
-0.57039511
-0.57228615
-0.5698821
-0.5637068
-0.55428906
-0.5421467
-0.52777353
-0.51162993
-0.49413618
-0.47566864
-0.45655826
-0.43709098
-0.41750949
-0.39801604
-0.37877582
-0.35992082
-0.34155366
-0.32375147
-0.30656956
-0.29004482
-0.27419883
-0.25904061
-0.24456905
-0.23077505
-0.21764322
-0.20515351
-0.19328238
-0.18200387
-0.17129045
-0.16111369
-0.15144476
-0.14225491
-0.13351576
-0.12519953
-0.11727926
-0.1097289
-0.10252346
-0.095638975
-0.089052637
-0.08274274
-0.076688695
-0.070871005
-0.065271237
-0.059871979
-0.054656786
-0.049610121
-0.044717311
-0.039964397
-0.03533827
-0.030825901
-0.026416314
-0.022093855
-0.017858814
-0.013662101
-0.0096138955
-0.0053523104
-0.0022266192
1.3497998
1.3476064
1.342193
1.3336201
1.322215
1.3080267
1.290943
1.2708722
1.2477584
1.2215393
1.1921334
1.1594512
1.1234048
1.0839119
1.040898
0.99430203
0.94408292
0.89022667
0.83275399
0.77172855
0.70726543
0.63953992
0.56879566
0.49535193
0.41960938
0.34205326
0.26325375
0.18386223
0.104603
0.026260162
-0.050340732
-0.12435565
-0.19494912
-0.26132368
-0.32275025
-0.37859692
-0.42835438
-0.47165522
-0.50828613
-0.53819148
-0.56146842
-0.57835428
-0.58920726
-0.59448299
-0.59470856
-0.59045643
-0.58231979
-0.57089087
-0.55674296
-0.54041627
-0.52240802
-0.50316613
-0.48308606
-0.46251035
-0.44173002
-0.4209876
-0.40048105
-0.38036824
-0.36077168
-0.34178323
-0.32346855
-0.3058713
-0.28901697
-0.2729162
-0.25756782
-0.24296134
-0.2290791
-0.21589813
-0.20339163
-0.19153015
-0.18028261
-0.16961706
-0.15950128
-0.14990325
-0.14079153
-0.13213545
-0.12390538
-0.11607282
-0.10861049
-0.10149237
-0.09469375
-0.08819121
-0.081962607
-0.075987041
-0.070244818
-0.064717386
-0.059387283
-0.054238062
-0.049254211
-0.044421091
-0.039724778
-0.035152171
-0.030690223
-0.026327903
-0.022049454
-0.017855135
-0.013695516
-0.0096811524
-0.0054408256
-0.0023073099
1.3684804
1.3663547
1.3611074
1.3527885
1.3417024
1.3278838
1.3112121
1.2915841
1.2689287
1.2431662
1.2141961
1.1819078
1.1461897
1.1069328
1.0640339
1.0174006
0.96695905
0.91266102
0.85449306
0.79248573
0.72672373
0.6573565
0.58460859
0.50878926
0.43030048
0.34964256
0.26741624
0.18432025
0.10114344
0.018750877
-0.061936608
-0.13996896
-0.21439875
-0.28431668
-0.3488885
-0.40739058
-0.4592412
-0.50402481
-0.54150685
-0.571638
-0.59454779
-0.61052822
-0.62000953
-0.6235308
-0.62170801
-0.61520243
-0.60469132
-0.59084276
-0.57429535
-0.555643
-0.53542476
-0.51411903
-0.49214143
-0.46984578
-0.44752696
-0.42542544
-0.40373262
-0.38259655
-0.36212779
-0.34240497
-0.32348
-0.30538288
-0.28812581
-0.27170693
-0.25611346
-0.24132431
-0.22731233
-0.21404607
-0.20149128
-0.18961202
-0.17837157
-0.16773314
-0.15766038
-0.14811777
-0.13907086
-0.13048654
-0.1223331
-0.11458032
-0.10719952
-0.10016358
-0.093446891
-0.087025343
-0.080876275
-0.074978413
-0.069311802
-0.063857729
-0.058598638
-0.053518047
-0.048600439
-0.04383119
-0.039196394
-0.034682956
-0.030277825
-0.025969926
-0.021743513
-0.017598608
-0.013486408
-0.0095157283
-0.0053250525
-0.0022379
1.3890588
1.3870051
1.3819344
1.373888
1.3631489
1.3497378
1.3335246
1.3143944
1.2922601
1.2670239
1.2385646
1.2067487
1.1714382
1.1324945
1.0897818
1.043172
0.99255283
0.93783627
0.87896806
0.81593869
0.74879525
0.67765429
0.60271477
0.5242705
0.44272117
0.35858086
0.27248272
0.18517841
0.097531021
0.010500578
-0.074878773
-0.15752943
-0.23636824
-0.31034944
-0.37851017
-0.44001462
-0.4941931
-0.54057257
-0.57889499
-0.60912233
-0.63142789
-0.646175
-0.653886
-0.65520516
-0.650859
-0.6416176
-0.62825965
-0.61154318
-0.59218267
-0.5708329
-0.54807888
-0.52443106
-0.50032478
-0.476123
-0.45212125
-0.42855406
-0.40560197
-0.3833989
-0.36203916
-0.34158416
-0.32206839
-0.30350476
-0.2858893
-0.26920505
-0.25342541
-0.23851685
-0.2244411
-0.21115699
-0.19862171
-0.18679199
-0.17562478
-0.16507791
-0.15511048
-0.14568313
-0.13675824
-0.12830004
-0.12027465
-0.11265013
-0.10539639
-0.098485213
-0.091890182
-0.085586583
-0.079551339
-0.073762916
-0.068201227
-0.062847523
-0.057684287
-0.052695125
-0.047864644
-0.043178358
-0.038622499
-0.034184105
-0.029850245
-0.025609931
-0.021447566
-0.017363119
-0.013308424
-0.0093908918
-0.0052543064
-0.0022060264
1.4114708
1.4094952
1.4046161
1.3968674
1.3865105
1.3735528
1.3578547
1.3392886
1.3177512
1.2931247
1.2652657
1.2340151
1.1992057
1.1606659
1.1182223
1.0717062
1.0209613
0.9658525
0.90627721
0.84217746
0.77355405
0.70048178
0.62312557
0.54175643
0.45676624
0.36868005
0.27816427
0.1860288
0.0932215
0.00081326231
-0.090027043
-0.17806826
-0.2620621
-0.34079566
-0.41314762
-0.47814372
-0.53500611
-0.58319186
-0.62241616
-0.65265796
-0.67414823
-0.68734193
-0.69287798
-0.69153201
-0.68416661
-0.67168394
-0.65498375
-0.63492941
-0.61232239
-0.58788537
-0.56225271
-0.53596744
-0.50948296
-0.48316826
-0.4573154
-0.43214826
-0.40783184
-0.38448122
-0.36217017
-0.34093896
-0.32080118
-0.30174977
-0.28376206
-0.26680396
-0.25083343
-0.23580318
-0.22166291
-0.20836087
-0.19584527
-0.18406503
-0.17297058
-0.1625142
-0.15265037
-0.14333588
-0.13452995
-0.12619423
-0.11829277
-0.11079196
-0.10366046
-0.096869084
-0.090390709
-0.084200153
-0.078274048
-0.072590718
-0.067130051
-0.061873362
-0.056803263
-0.051903532
-0.047158966
-0.04255528
-0.038078901
-0.03371705
-0.029456967
-0.025287811
-0.021194166
-0.017176095
-0.01318585
-0.0093301479
-0.0052508726
-0.0022323704
1.4356465
1.4337566
1.4290885
1.4216684
1.4117363
1.3992862
1.3841692
1.3662452
1.3453934
1.3214754
1.2943241
1.2637528
1.2295627
1.1915455
1.1494867
1.1031717
1.0523934
0.99696277
0.93672008
0.87154944
0.80139482
0.72627844
0.64632044
0.56175917
0.47297064
0.38048575
0.28500326
0.18739574
0.088706434
-0.0098650794
-0.10699061
-0.20125451
-0.29120779
-0.37543251
-0.452612
-0.52160085
-0.58148794
-0.63164549
-0.67175855
-0.70183149
-0.72217172
-0.73335265
-0.73616142
-0.73153832
-0.72051401
-0.70415115
-0.68349393
-0.65952879
-0.63315629
-0.605174
-0.57626847
-0.54701465
-0.51788089
-0.4892374
-0.46136701
-0.43447689
-0.40871027
-0.38415756
-0.36086658
-0.33885159
-0.31810111
-0.29858443
-0.28025715
-0.26306549
-0.24694985
-0.23184753
-0.21769476
-0.20442822
-0.19198617
-0.18030913
-0.1693404
-0.15902633
-0.14931642
-0.1401634
-0.13152311
-0.12335451
-0.11561947
-0.10828269
-0.10131152
-0.094675825
-0.088347806
-0.082301839
-0.076514323
-0.070963494
-0.065629274
-0.060493104
-0.055537785
-0.050747321
-0.046106759
-0.041602066
-0.037219923
-0.032947785
-0.028773132
-0.024685307
-0.02066923
-0.01672477
-0.0128057
-0.0090151975
-0.0050161145
-0.002078336
1.461509
1.4597141
1.4552797
1.4482248
1.4387669
1.4268868
1.4124271
1.3952349
1.3751717
1.3520776
1.3257607
1.2960051
1.2625776
1.2252301
1.1837026
1.1377286
1.087044
1.0313967
0.97056044
0.90434978
0.83263935
0.7553852
0.67264891
0.58462291
0.4916559
0.39427643
0.29321207
0.18940079
0.083992071
-0.02166642
-0.12605841
-0.22754658
-0.32443753
-0.41506097
-0.49785804
-0.57147061
-0.63482199
-0.68718056
-0.72819718
-0.75791287
-0.77673601
-0.78539287
-0.78485896
-0.77628072
-0.76089587
-0.73996117
-0.71469204
-0.6862172
-0.65554837
-0.62356383
-0.59100306
-0.55846997
-0.52644224
-0.49528419
-0.46526151
-0.43655667
-0.40928345
-0.38350055
-0.35922361
-0.33643546
-0.31509493
-0.29514395
-0.2765133
-0.25912715
-0.2429065
-0.22777182
-0.2136449
-0.20045013
-0.18811539
-0.17657253
-0.16575764
-0.15561112
-0.14607758
-0.13710582
-0.12864854
-0.12066219
-0.11310674
-0.10594545
-0.099144648
-0.09267351
-0.086503836
-0.08060981
-0.074967837
-0.069556292
-0.064355333
-0.059346706
-0.054513561
-0.049840268
-0.045312242
-0.04091581
-0.036637993
-0.032466566
-0.028389312
-0.024395865
-0.020471415
-0.016616239
-0.01278409
-0.0090789789
-0.0051474446
-0.0022224628
1.4889735
1.4872842
1.4831094
1.4764612
1.4675335
1.4562943
1.442578
1.4262196
1.4070625
1.3849252
1.3595898
1.3308101
1.2983164
1.2618175
1.2210035
1.175551
1.1251309
1.0694197
1.0081132
0.94094357
0.86770112
0.78825949
0.70260434
0.61086508
0.51334752
0.41056543
0.30326805
0.19245939
0.07940509
-0.034377726
-0.14715142
-0.2570123
-0.36196852
-0.46003808
-0.5493605
-0.6283114
-0.69560742
-0.75038878
-0.79226793
-0.82133818
-0.83814166
-0.8436029
-0.83893775
-0.82555134
-0.80493694
-0.77858606
-0.7479164
-0.71422017
-0.67863239
-0.64211657
-0.6054637
-0.5693011
-0.53410757
-0.50023182
-0.46791233
-0.43729691
-0.40846082
-0.38142286
-0.35615933
-0.3326157
-0.31071615
-0.29037123
-0.27148374
-0.25395332
-0.23767969
-0.22256509
-0.20851581
-0.19544321
-0.18326427
-0.17190179
-0.16128438
-0.15134633
-0.14202732
-0.13327215
-0.12503037
-0.11725599
-0.10990712
-0.10294567
-0.09633703
-0.090049797
-0.084055459
-0.078328131
-0.072844298
-0.06758257
-0.062523419
-0.057648963
-0.052942757
-0.048389584
-0.043975272
-0.039686541
-0.035510793
-0.031436155
-0.02745077
-0.023544541
-0.019703191
-0.015926562
-0.012171022
-0.0085341778
-0.0047043462
-0.0019050312
1.5179457
1.5163736
1.5124875
1.5062922
1.4979571
1.4874375
1.4745608
1.4591503
1.4410319
1.420002
1.3958171
1.368199
1.33684
1.3014033
1.2615251
1.216819
1.1668839
1.1113149
1.0497173
0.98172635
0.90703033
0.82540049
0.73672513
0.64104836
0.53861188
0.42989662
0.31566131
0.1969725
0.075220407
-0.047885809
-0.17034886
-0.28994492
-0.40431683
-0.51109585
-0.60804359
-0.69320032
-0.76502253
-0.8224913
-0.86517595
-0.89324375
-0.90741475
-0.90887145
-0.89913734
-0.87994303
-0.853097
-0.82037425
-0.78343007
-0.7437424
-0.70258043
-0.66099446
-0.61982197
-0.57970409
-0.54110851
-0.50435508
-0.46964185
-0.4370696
-0.40666386
-0.37839387
-0.35218841
-0.32794885
-0.30555934
-0.28489484
-0.26582701
-0.24822859
-0.23197638
-0.21695326
-0.20304934
-0.19016256
-0.17819888
-0.16707207
-0.15670345
-0.14702144
-0.13796105
-0.12946345
-0.12147541
-0.11394885
-0.1068404
-0.100111
-0.093725443
-0.087652079
-0.081862396
-0.076330725
-0.071033883
-0.065950929
-0.06106284
-0.056352264
-0.051803288
-0.04740122
-0.043132384
-0.038983969
-0.034943815
-0.031000463
-0.027142443
-0.023360065
-0.019639337
-0.015980952
-0.012340346
-0.008818839
-0.0050642247
-0.0022449971
1.5483207
1.5468786
1.5433129
1.5376211
1.5299468
1.5202332
1.5083017
1.4939654
1.4770331
1.4572799
1.4344362
1.4081923
1.3782011
1.3440779
1.3054014
1.2617169
1.2125437
1.157385
1.0957428
1.027138
0.95113695
0.8673846
0.77564524
0.67584947
0.56814665
0.45295955
0.33103716
0.20349941
0.071866113
-0.061938264
-0.19561304
-0.32654949
-0.45194204
-0.56893971
-0.67482749
-0.76722009
-0.84424376
-0.90468027
-0.94805104
-0.97462747
-0.98536742
-0.9817909
-0.96581678
-0.93958639
-0.9052977
-0.86506705
-0.82082718
-0.77426467
-0.72679113
-0.67954121
-0.63338883
-0.58897433
-0.54673743
-0.50695175
-0.46975838
-0.43519611
-0.40322773
-0.37376186
-0.3466708
-0.32180456
-0.29900168
-0.27809725
-0.2589286
-0.24133931
-0.22518165
-0.21031809
-0.19662191
-0.18397726
-0.17227888
-0.16143153
-0.15134931
-0.14195495
-0.13317905
-0.12495935
-0.11724016
-0.10997163
-0.10310922
-0.096613196
-0.090448099
-0.084582298
-0.078987576
-0.073638706
-0.068513084
-0.063590389
-0.058852279
-0.054282071
-0.049864505
-0.045585513
-0.04143201
-0.037391738
-0.033453058
-0.029604998
-0.025836599
-0.02213853
-0.018497612
-0.014913654
-0.011346524
-0.0078864419
-0.0042595172
-0.0016388823
1.5799823
1.578684
1.5754726
1.5703388
1.5633989
1.5545845
1.5437131
1.5305886
1.5150044
1.4967152
1.4754264
1.4507968
1.4224398
1.3899216
1.3527603
1.3104283
1.2623576
1.2079492
1.1465872
1.07766
1.0005882
0.9148627
0.82009113
0.7160548
0.60277373
0.48057736
0.35017585
0.21272479
0.069873125
-0.076217323
-0.22289338
-0.36708373
-0.50543078
-0.63447901
-0.75090842
-0.85178919
-0.93482459
-0.99854462
-1.0424181
-1.0668635
-1.0731582
-1.0632662
-1.0396169
-1.0048714
-0.96170946
-0.91265714
-0.85996854
-0.80556029
-0.75099015
-0.69746819
-0.64588773
-0.59686688
-0.55079435
-0.50787508
-0.46817251
-0.43164537
-0.39817848
-0.36760746
-0.33973827
-0.31436208
-0.29126627
-0.27024212
-0.25109004
-0.23362275
-0.21766714
-0.20306491
-0.1896725
-0.17736056
-0.16601303
-0.15552614
-0.14580733
-0.13677416
-0.12835336
-0.12047982
-0.11309584
-0.10615025
-0.099597822
-0.093398504
-0.087516934
-0.081921804
-0.076585439
-0.071483264
-0.066593415
-0.061896313
-0.05737438
-0.053011659
-0.048793572
-0.044706692
-0.040738524
-0.036877361
-0.033112078
-0.029432206
-0.025827241
-0.022288416
-0.018802776
-0.015371804
-0.011952505
-0.0086446004
-0.0050857539
-0.0023636974
1.612802
1.611662
1.6088411
1.6043227
1.5981952
1.5903795
1.5806912
1.568927
1.5548667
1.5382463
1.5187482
1.4960011
1.4695795
1.4390001
1.4037187
1.3631307
1.3165743
1.2633378
1.2026727
1.1338145
1.056012
0.96856891
0.87089723
0.76258427
0.64347269
0.51375067
0.37404723
0.22552354
0.069947795
-0.090262182
-0.25204671
-0.41177937
-0.56542088
-0.70875384
-0.83768439
-0.94857989
-1.0385966
-1.1059433
-1.1500326
-1.1714907
-1.172027
-1.1541935
-1.1210819
-1.0760136
-1.0222634
-0.96284791
-0.90038916
-0.83705117
-0.77453373
-0.7141041
-0.6566486
-0.602733
-0.55266454
-0.50655096
-0.46435293
-0.42592782
-0.39106499
-0.3595131
-0.33100095
-0.30525273
-0.28199872
-0.26098223
-0.24196388
-0.22472385
-0.20906263
-0.19480076
-0.18177789
-0.1698514
-0.15889497
-0.14879687
-0.13945859
-0.13079328
-0.12272455
-0.11518521
-0.10811635
-0.10146623
-0.095189589
-0.089246795
-0.083603149
-0.078228245
-0.07309543
-0.068181214
-0.063464835
-0.058927784
-0.054553509
-0.050327014
-0.046234608
-0.042263682
-0.038402504
-0.034640079
-0.030965966
-0.027370332
-0.023843378
-0.020376787
-0.016958845
-0.013589267
-0.010232781
-0.0069696218
-0.003585346
-0.0012054472
1.6466384
1.6456719
1.6432787
1.639436
1.6342026
1.6274902
1.6191147
1.6088686
1.5965203
1.5817902
1.56434
1.5437711
1.519621
1.4913579
1.4583752
1.4199886
1.375437
1.3238863
1.2644407
1.1961613
1.1180963
1.0293247
0.92901584
0.81650794
0.69140467
0.55368888
0.40384794
0.24300072
0.073010273
-0.10343879
-0.28282357
-0.46085263
-0.63264323
-0.79301219
-0.93686803
-1.0596624
-1.157837
-1.2291868
-1.2730664
-1.2903972
-1.2834771
-1.2556411
-1.2108453
-1.1532514
-1.0868703
-1.0153015
-0.94158151
-0.86813093
-0.79677521
-0.72880715
-0.66506694
-0.60602661
-0.5518723
-0.50257909
-0.45797488
-0.41779154
-0.38170409
-0.34936003
-0.32040081
-0.29447668
-0.27125635
-0.25043261
-0.23172502
-0.21488091
-0.19967463
-0.18590617
-0.17339915
-0.16199859
-0.15156866
-0.14199055
-0.13316048
-0.12498788
-0.11739385
-0.1103097
-0.10367575
-0.097440171
-0.091558044
-0.085990448
-0.080703617
-0.075668261
-0.070858862
-0.066253122
-0.06183141
-0.057576309
-0.053472244
-0.049505147
-0.04566216
-0.041931432
-0.038301935
-0.034763338
-0.031305833
-0.027920226
-0.024597289
-0.021329516
-0.018105261
-0.014927422
-0.011754069
-0.0086857625
-0.005327738
-0.0026654283
1.6813364
1.6805588
1.6786319
1.6755265
1.6712714
1.6657702
1.6588428
1.6502802
1.6398429
1.6272389
1.6121137
1.5940448
1.5725366
1.5470117
1.5168023
1.4811444
1.4391735
1.3899255
1.3323431
1.2652914
1.1875869
1.0980413
0.995527
0.87906572
0.74794393
0.60185416
0.44105773
0.26655822
0.080266575
-0.11486945
-0.31480771
-0.51446394
-0.70790918
-0.88872937
-1.0505361
-1.1875759
-1.2953468
-1.3711048
-1.4141494
-1.4258235
-1.409233
-1.3687627
-1.3095018
-1.2366853
-1.1552329
-1.0694313
-0.98277211
-0.89792676
-0.81681142
-0.74069458
-0.67031481
-0.60599534
-0.54775028
-0.495378
-0.4485375
-0.40680641
-0.36972326
-0.33681781
-0.30763228
-0.28173499
-0.25872803
-0.23825085
-0.21998089
-0.20363262
-0.18895518
-0.17572942
-0.16376461
-0.15289522
-0.14297791
-0.13388858
-0.12552006
-0.1177798
-0.11058801
-0.10387601
-0.097584747
-0.091663551
-0.086068969
-0.080763754
-0.075715924
-0.070898016
-0.066286253
-0.061860019
-0.057601235
-0.053493926
-0.049523789
-0.045677935
-0.041944577
-0.038312849
-0.034772653
-0.031314541
-0.027929583
-0.024609418
-0.021345772
-0.018131665
-0.01495734
-0.011822277
-0.0086979645
-0.0056510365
-0.002559674
-0.00051233275
1.7167272
1.7161542
1.7147321
1.7124262
1.7092344
1.7050547
1.6997137
1.6930053
1.6846858
1.6744561
1.6619498
1.6467267
1.6282633
1.6059416
1.579037
1.5467076
1.507985
1.4617696
1.4068306
1.3418167
1.26528
1.175719
1.0716462
0.95168618
0.8147107
0.66001079
0.48750524
0.29797414
0.093296016
-0.1233473
-0.34734628
-0.5726778
-0.79211411
-0.99766308
-1.1812359
-1.335476
-1.4546204
-1.5352156
-1.5765179
-1.5804764
-1.5513145
-1.4948349
-1.4176193
-1.326277
-1.2268476
-1.1244168
-1.0229578
-0.92536098
-0.83357038
-0.74875497
-0.67147535
-0.60183448
-0.5396123
-0.48438011
-0.43558949
-0.39263557
-0.35490026
-0.32178186
-0.29271463
-0.26717983
-0.24471036
-0.22489127
-0.20735787
-0.19179234
-0.17791946
-0.16550187
-0.1543355
-0.1442452
-0.1350809
-0.12671412
-0.11903499
-0.11194972
-0.10537833
-0.09925275
-0.093515189
-0.088116633
-0.083015545
-0.078176728
-0.073570296
-0.069170797
-0.064956388
-0.06090819
-0.057009728
-0.05324645
-0.049605318
-0.046074565
-0.04264342
-0.039301957
-0.036040952
-0.032851809
-0.02972642
-0.026657281
-0.023636842
-0.020659308
-0.017714654
-0.014808049
-0.011897645
-0.009088548
-0.0059192709
-0.0032450664
1.7526283
1.7522752
1.751396
1.7499508
1.747907
1.7451586
1.7415432
1.7368619
1.7308722
1.723273
1.7136931
1.7016815
1.6866948
1.668082
1.645069
1.6167415
1.5820308
1.5396997
1.4883361
1.426354
1.35201
1.2634402
1.1587269
1.0360034
0.8936061
0.73028131
0.5454473
0.33950423
0.11416763
-0.12721687
-0.37944488
-0.63539367
-0.88622351
-1.1219079
-1.3321078
-1.5073101
-1.6400456
-1.7259167
-1.7641647
-1.7576182
-1.7120599
-1.6352183
-1.5356512
-1.4217316
-1.3008734
-1.1790721
-1.0607806
-0.94903651
-0.84570961
-0.75176087
-0.66746817
-0.59261879
-0.52667694
-0.46892212
-0.41855026
-0.37473927
-0.33669039
-0.30365519
-0.27495169
-0.24997111
-0.22817756
-0.20910445
-0.19234901
-0.17756594
-0.16446061
-0.15278233
-0.14231819
-0.13288754
-0.12433729
-0.11653777
-0.1093793
-0.10276933
-0.096629783
-0.090895065
-0.085510128
-0.080428929
-0.075612889
-0.071029707
-0.066652275
-0.06245767
-0.058426418
-0.054541706
-0.05078895
-0.047155264
-0.04362913
-0.040200122
-0.036858746
-0.033596268
-0.030404624
-0.027276356
-0.024204499
-0.021182621
-0.018204438
-0.015264694
-0.012356141
-0.0094777427
-0.0066100503
-0.0038015006
-0.0010665751
0.00052544527
1.7888432
1.7887247
1.7884249
1.7879
1.787086
1.7858761
1.7841235
1.7816412
1.7781937
1.773485
1.7671474
1.7587281
1.7476738
1.7333115
1.7148283
1.6912483
1.6614099
1.6239434
1.5772523
1.5195033
1.448629
1.3623547
1.258257
1.1338688
0.98684655
0.81520984
0.6176652
0.39400982
0.14559364
-0.12421098
-0.40961887
-0.7022424
-0.9912451
-1.263964
-1.5070536
-1.7080638
-1.8571869
-1.948755
-1.982054
-1.9612008
-1.89417
-1.791324
-1.6638489
-1.522387
-1.3760247
-1.2317601
-1.0944664
-0.96719238
-0.85157886
-0.74823415
-0.65702552
-0.57731516
-0.50816395
-0.44849542
-0.39720532
-0.35322348
-0.31554902
-0.28327249
-0.25558711
-0.23178916
-0.21127159
-0.19351524
-0.17807951
-0.16459264
-0.15274199
-0.14226519
-0.13294227
-0.12458897
-0.1170511
-0.11019973
-0.10392728
-0.098144178
-0.092776005
-0.087761163
-0.083048738
-0.078596794
-0.074370697
-0.070341835
-0.066486407
-0.062784521
-0.059219277
-0.055776126
-0.052442462
-0.049207095
-0.046059977
-0.042992026
-0.039994993
-0.037061302
-0.034184029
-0.03135684
-0.028573867
-0.025829822
-0.023119331
-0.02043882
-0.017780162
-0.015151735
-0.012510343
-0.0099699569
-0.0069593352
-0.0041707528
1.8251625
1.8252924
1.8256062
1.8260569
1.82655
1.8269807
1.8272222
1.8271055
1.8264087
1.8248489
1.8220713
1.8176329
1.810983
1.8014412
1.7881709
1.7701503
1.74614
1.7146491
1.6739031
1.6218163
1.5559769
1.4736545
1.3718423
1.2473536
1.0969935
0.91782845
0.70757534
0.46511672
0.19112971
-0.11122759
-0.43568101
-0.77242854
-1.1081728
-1.4268175
-1.7109597
-1.9440972
-2.1131713
-2.2107884
-2.2363972
-2.1960215
-2.1007399
-1.9645326
-1.8021013
-1.6270149
-1.4503773
-1.2802373
-1.1217331
-0.97768467
-0.849262
-0.73650705
-0.6386929
-0.55460358
-0.4827808
-0.42171569
-0.36995892
-0.32616814
-0.28913032
-0.25777574
-0.23118062
-0.20855765
-0.18924076
-0.17267012
-0.15837822
-0.14597635
-0.13514188
-0.12560721
-0.1171505
-0.10958796
-0.10276752
-0.096563587
-0.090872694
-0.085609888
-0.080705673
-0.076103518
-0.071757495
-0.067630441
-0.063692195
-0.059918256
-0.05628846
-0.052786242
-0.049397544
-0.046110305
-0.042914151
-0.039799853
-0.036759157
-0.033784619
-0.030869545
-0.028007904
-0.025194277
-0.022423802
-0.019692065
-0.016995104
-0.014329127
-0.011690942
-0.0090762909
-0.0064831757
-0.0039034636
-0.0013624565
0.00094188758
0.0019379566
1.8613646
1.8617551
1.8627132
1.8641894
1.8660598
1.8682246
1.8705823
1.8729879
1.8752405
1.8770794
1.8781738
1.8781037
1.8763369
1.8722033
1.8648632
1.8532708
1.8361316
1.8118556
1.7785068
1.7337556
1.6748374
1.5985317
1.5011755
1.3787361
1.2269727
1.0417238
0.81935687
0.55741162
0.25543727
-0.084023398
-0.45443481
-0.84448906
-1.2378833
-1.614033
-1.950001
-2.2236135
-2.4172261
-2.5210797
-2.5350155
-2.4679114
-2.3352716
-2.1560697
-1.9497287
-1.7335859
-1.5211302
-1.3214057
-1.1395195
-0.97771392
-0.83638989
-0.7147858
-0.61137938
-0.52420371
-0.45114918
-0.39018536
-0.33945887
-0.29731286
-0.26229276
-0.23315173
-0.20884219
-0.18849257
-0.17138083
-0.15691215
-0.1445995
-0.13404541
-0.12492553
-0.11697496
-0.10997752
-0.10375675
-0.098168979
-0.093097401
-0.088447392
-0.084142635
-0.080121956
-0.076336485
-0.072747346
-0.069323713
-0.066040995
-0.062879458
-0.059823099
-0.056858734
-0.053975271
-0.051163137
-0.048414058
-0.045720691
-0.04307646
-0.040475538
-0.037912755
-0.035383619
-0.032884236
-0.030411238
-0.027961664
-0.025533056
-0.023122699
-0.020729674
-0.018347945
-0.015989833
-0.013609285
-0.011332593
-0.0084379376
-0.0054230943