/*--------------------------------*- C++ -*----------------------------------*\
| =========                 |                                                 |
| \\      /  F ield         | OpenFOAM: The Open Source CFD Toolbox           |
|  \\    /   O peration     | Version:  2406                                  |
|   \\  /    A nd           | Website:  www.openfoam.com                      |
|    \\/     M anipulation  |                                                 |
\*---------------------------------------------------------------------------*/
FoamFile
{
    version     2.0;
    format      ascii;
    arch        "LSB;label=32;scalar=64";
    class       surfaceScalarField;
    location    "900";
    object      phi;
}
// * * * * * * * * * * * * * * * * * * * * * * * * * * * * * * * * * * * * * //

dimensions      [0 3 -1 0 0 0 0];

oriented        oriented;

internalField   nonuniform List<scalar> 
39940
(
0.75000231
-1.872207e-06
0.75000723
-6.3136718e-06
0.75001478
-1.1361916e-05
0.75002482
-1.6845208e-05
0.75003734
-2.2713671e-05
0.75005233
-2.8954158e-05
0.75007041
-3.6153843e-05
0.75009038
-4.2496612e-05
0.75011288
-4.9767325e-05
0.7501379
-5.7351058e-05
0.75016545
-6.5231685e-05
0.75019555
-7.3389427e-05
0.75022877
-8.2400226e-05
0.75026391
-9.0433599e-05
0.75030152
-9.9253723e-05
0.75034155
-0.0001082167
0.75038453
-0.00011787126
0.75042914
-0.00012635642
0.75047646
-0.00013600454
0.75052513
-0.0001443371
0.75057614
-0.00015367029
0.75062806
-0.00016150972
0.75068183
-0.00017015876
0.75073594
-0.00017711249
0.75079126
-0.0001846684
0.75084622
-0.00019031988
0.75090164
-0.00019636912
0.7509559
-0.00020031972
0.75100979
-0.00020449173
0.75106168
-0.00020641279
0.75111236
-0.00020843416
0.75116022
-0.00020812012
0.75120548
-0.00020726305
0.75124842
-0.0002058762
0.75128753
-0.00020219334
0.75132318
-0.00019807706
0.75135517
-0.00019300742
0.7513834
-0.00018708394
0.75140779
-0.00018042117
0.75142776
-0.00017254348
0.75144457
-0.00016538607
0.75145773
-0.00015727991
0.75146682
-0.00014835613
0.75147322
-0.00014054384
0.75147599
-0.00013155421
0.75147658
-0.00012389601
0.75147406
-0.00011525474
0.75146993
-0.00010811084
0.75146325
-0.0001001202
0.75145551
-9.373377e-05
0.75144578
-8.6579191e-05
0.75143549
-8.1081068e-05
0.75142369
-7.4843497e-05
0.75141179
-7.0270387e-05
0.75139877
-6.4948466e-05
0.751386
-6.1267273e-05
0.75137305
-5.7403465e-05
0.75135942
-5.3333644e-05
0.75134644
-5.083517e-05
0.75133359
-4.8077515e-05
0.75132035
-4.5032903e-05
0.75130799
-4.3476829e-05
0.75129594
-4.1579085e-05
0.75128424
-3.9914776e-05
0.75127292
-3.8459318e-05
0.75126201
-3.718963e-05
0.7512509
-3.5483356e-05
0.7512408
-3.5123774e-05
0.75123111
-3.4289927e-05
0.75122183
-3.3566473e-05
0.75121294
-3.2938755e-05
0.75120445
-3.2393533e-05
0.75119632
-3.1919093e-05
0.75118856
-3.1504915e-05
0.75118113
-3.1141807e-05
0.75117404
-3.0821545e-05
0.75116725
-3.053703e-05
0.75116076
-3.0281912e-05
0.75115454
-3.0050788e-05
0.75114859
-2.9838805e-05
0.75114288
-2.9641909e-05
0.7511374
-2.9456421e-05
0.75113213
-2.9279346e-05
0.75112705
-2.9107919e-05
0.75112217
-2.8939968e-05
0.75111745
-2.877344e-05
0.75111289
-2.8606811e-05
0.75110847
-2.8438599e-05
0.75110419
-2.8267806e-05
0.75110003
-2.8093439e-05
0.75109599
-2.7914985e-05
0.75109204
-2.7731945e-05
0.75108819
-2.7544385e-05
0.75108443
-2.7352408e-05
0.75108075
-2.7157298e-05
0.75107714
-2.6959586e-05
0.7510736
-2.6766394e-05
0.75107015
-2.6573318e-05
0.7510668
-2.6443764e-05
-2.6312054e-05
0.75000164
-3.5092026e-06
0.750006
-1.0667338e-05
0.75001354
-1.8897535e-05
0.75002303
-2.6327613e-05
0.75003504
-3.471885e-05
0.75004956
-4.3471114e-05
0.750066
-5.2583318e-05
0.75008555
-6.2046945e-05
0.75010824
-7.2450442e-05
0.75013288
-8.1979868e-05
0.75016007
-9.2416927e-05
0.75019042
-0.00010373676
0.75022213
-0.00011410615
0.75025759
-0.00012588416
0.75029496
-0.00013661863
0.7503354
-0.0001486482
0.75037763
-0.00016009869
0.75042276
-0.00017148447
0.75046887
-0.00018210814
0.7505182
-0.0001936619
0.75056876
-0.0002042254
0.75062153
-0.00021427066
0.75067564
-0.00022426315
0.75073079
-0.00023226211
0.75078606
-0.00023992947
0.75084227
-0.00024652798
0.75089784
-0.0002519297
0.75095354
-0.00025601913
0.75100776
-0.00025869821
0.75106124
-0.0002598917
0.75111236
-0.00025955094
0.75116191
-0.00025765752
0.75120828
-0.00025362475
0.75125171
-0.0002493035
0.75129189
-0.0002423712
0.75132856
-0.00023474349
0.75136152
-0.00022595988
0.75139062
-0.00021618387
0.7514158
-0.00020559611
0.75143705
-0.00019378661
0.75145442
-0.00018275347
0.75146743
-0.00017028443
0.75147744
-0.00015836555
0.75148346
-0.00014656448
0.75148694
-0.00013503181
0.75148694
-0.00012389694
0.75148496
-0.00011326673
0.75148007
-0.00010322487
0.75147378
-9.3832587e-05
0.75146518
-8.5129863e-05
0.75145574
-7.7137795e-05
0.75144452
-6.9860282e-05
0.75143296
-6.3287293e-05
0.75142008
-5.7397088e-05
0.75140729
-5.2158922e-05
0.75139356
-4.753533e-05
0.75137964
-4.3484183e-05
0.75136626
-3.9960771e-05
0.75135295
-3.752016e-05
0.75133918
-3.4313191e-05
0.75132685
-3.2699368e-05
0.7513136
-3.0231414e-05
0.75130129
-2.9272942e-05
0.75128935
-2.7982909e-05
0.75127722
-2.63264e-05
0.7512661
-2.6074599e-05
0.751256
-2.5395511e-05
0.75124574
-2.4864236e-05
0.7512359
-2.4457609e-05
0.75122649
-2.4155161e-05
0.75121688
-2.3337838e-05
0.75120828
-2.3792805e-05
0.75120005
-2.3703338e-05
0.7511922
-2.365855e-05
0.7511847
-2.3648147e-05
0.75117754
-2.3663385e-05
0.7511707
-2.369673e-05
0.75116415
-2.3741883e-05
0.75115789
-2.3793442e-05
0.7511519
-2.3846975e-05
0.75114615
-2.3898689e-05
0.75114064
-2.3945557e-05
0.75113534
-2.3984985e-05
0.75113025
-2.4014987e-05
0.75112534
-2.4033852e-05
0.75112061
-2.4040365e-05
0.75111603
-2.4033481e-05
0.75111161
-2.4012572e-05
0.75110731
-2.3977124e-05
0.75110315
-2.3927006e-05
0.75109909
-2.3862209e-05
0.75109514
-2.3783133e-05
0.75109129
-2.3690415e-05
0.75108752
-2.3585239e-05
0.75108383
-2.3469506e-05
0.75108021
-2.3345915e-05
0.75107667
-2.3219981e-05
0.75107319
-2.309587e-05
0.75106972
-2.2982628e-05
-2.2829645e-05
0.75000203
-4.9347431e-06
0.75000623
-1.4865052e-05
0.75001245
-2.5108763e-05
0.75002182
-3.5698424e-05
0.75003373
-4.6623424e-05
0.75004816
-5.7893345e-05
0.75006571
-7.0121217e-05
0.75008518
-8.1509625e-05
0.75010658
-9.3853068e-05
0.75013175
-0.00010713929
0.75015889
-0.00011954808
0.75018861
-0.00013345042
0.75022151
-0.0001470055
0.75025639
-0.00016076073
0.75029443
-0.00017465017
0.75033438
-0.00018859301
0.75037678
-0.000202494
0.75042154
-0.00021624191
0.75046915
-0.00022971027
0.75051885
-0.00024335832
0.75057046
-0.00025583102
0.75062316
-0.00026696207
0.75067728
-0.00027837973
0.75073313
-0.00028810447
0.75078916
-0.00029595861
0.75084622
-0.00030357257
0.75090328
-0.00030898519
0.75095992
-0.00031265631
0.7510151
-0.00031386963
0.75106956
-0.00031434349
0.75112164
-0.00031162761
0.75117151
-0.00030751894
0.75121934
-0.00030145524
0.75126356
-0.00029352042
0.75130444
-0.00028324132
0.75134229
-0.00027258965
0.7513757
-0.00025936509
0.75140452
-0.00024500151
0.75142988
-0.00023095275
0.75145118
-0.0002150758
0.75146786
-0.00019943631
0.75148127
-0.00018368694
0.75149097
-0.00016806552
0.75149659
-0.00015218495
0.7514996
-0.00013803551
0.75149907
-0.0001233679
0.75149591
-0.00011010878
0.75149104
-9.8349093e-05
0.75148355
-8.6345353e-05
0.75147435
-7.5933521e-05
0.75146373
-6.6519523e-05
0.75145256
-5.8690806e-05
0.75143989
-5.0612735e-05
0.75142713
-4.4645342e-05
0.7514133
-3.8329335e-05
0.75139977
-3.4007835e-05
0.7513861
-2.9811918e-05
0.75137241
-2.6275585e-05
0.75135822
-2.333187e-05
0.75134482
-2.0915675e-05
0.75133109
-1.8964716e-05
0.75131887
-1.802149e-05
0.75130583
-1.6228472e-05
0.75129378
-1.5940054e-05
0.75128216
-1.4706848e-05
0.75127097
-1.4892349e-05
0.75125963
-1.4056244e-05
0.75124933
-1.4570583e-05
0.75123947
-1.4604243e-05
0.75123004
-1.4733754e-05
0.75122164
-1.4937958e-05
0.75121304
-1.5198641e-05
0.75120423
-1.4899322e-05
0.7511964
-1.5829719e-05
0.75118892
-1.6175852e-05
0.75118178
-1.6529423e-05
0.75117496
-1.6882781e-05
0.75116845
-1.7229612e-05
0.75116221
-1.7564826e-05
0.75115625
-1.7884296e-05
0.75115053
-1.8184803e-05
0.75114505
-1.8463803e-05
0.75113978
-1.8719413e-05
0.75113472
-1.8950214e-05
0.75112984
-1.9155269e-05
0.75112513
-1.9333948e-05
0.75112058
-1.948599e-05
0.75111618
-1.9611345e-05
0.75111191
-1.9710271e-05
0.75110777
-1.9783201e-05
0.75110374
-1.9830879e-05
0.75109981
-1.9854273e-05
0.75109597
-1.9854787e-05
0.75109222
-1.9834177e-05
0.75108854
-1.979517e-05
0.75108493
-1.97406e-05
0.75108139
-1.9677591e-05
0.7510779
-1.9607324e-05
0.75107449
-1.9573877e-05
-1.9563123e-05
0.75000135
-6.2817234e-06
0.75000537
-1.8876965e-05
0.75001195
-3.1685132e-05
0.75002104
-4.4789557e-05
0.75003324
-5.8816549e-05
0.75004734
-7.1987051e-05
0.75006335
-8.6122537e-05
0.75008308
-0.00010123492
0.75010476
-0.00011552373
0.75012901
-0.00013137886
0.75015644
-0.0001469792
0.75018589
-0.00016289164
0.75021796
-0.00017906887
0.75025265
-0.00019544753
0.75028995
-0.00021194793
0.75033044
-0.00022907206
0.75037285
-0.00024490189
0.75041832
-0.00026170194
0.75046613
-0.00027751481
0.75051554
-0.00029276687
0.75056698
-0.00030726687
0.75062143
-0.0003214104
0.75067624
-0.00033318133
0.7507329
-0.00034476104
0.75079048
-0.00035352906
0.75084859
-0.0003616768
0.75090622
-0.00036660686
0.75096412
-0.00037055167
0.75102123
-0.00037097067
0.75107646
-0.00036956961
0.75113054
-0.00036569917
0.75118179
-0.00035876348
0.75123097
-0.0003506276
0.75127646
-0.00033900797
0.75131911
-0.00032588391
0.7513568
-0.00031028126
0.75139112
-0.00029367382
0.75142188
-0.00027576628
0.75144722
-0.00025628569
0.75146892
-0.00023677241
0.75148645
-0.00021696094
0.75149933
-0.00019657094
0.75150837
-0.0001771017
0.7515144
-0.00015821525
0.75151651
-0.00014013651
0.75151559
-0.00012244699
0.75151257
-0.00010708982
0.75150598
-9.1757436e-05
0.75149854
-7.891273e-05
0.75148878
-6.6173071e-05
0.7514782
-5.5934951e-05
0.75146586
-4.6360785e-05
0.75145325
-3.7997424e-05
0.75143938
-3.077512e-05
0.75142566
-2.4613369e-05
0.75141107
-1.9424967e-05
0.75139638
-1.5119499e-05
0.75138231
-1.2207298e-05
0.75136777
-8.7962268e-06
0.75135406
-7.2055349e-06
0.75134064
-5.5516508e-06
0.75132698
-4.3611728e-06
0.75131431
-3.5657821e-06
0.75130207
-3.7046065e-06
0.75129028
-2.9189936e-06
0.75127835
-2.9627521e-06
0.75126808
-3.7923865e-06
0.75125767
-4.1678862e-06
0.75124712
-4.0563913e-06
0.75123761
-5.2326166e-06
0.75122854
-5.8694035e-06
0.75121988
-6.547327e-06
0.75121223
-7.2492172e-06
0.75120375
-7.3598383e-06
0.75119624
-8.6703057e-06
0.75118908
-9.3681288e-06
0.75118224
-1.0046536e-05
0.7511757
-1.0699409e-05
0.75116946
-1.1321961e-05
0.75116348
-1.1910572e-05
0.75115776
-1.2462549e-05
0.75115227
-1.2976028e-05
0.751147
-1.3449763e-05
0.75114193
-1.3883083e-05
0.75113705
-1.4275723e-05
0.75113235
-1.4627815e-05
0.7511278
-1.4939755e-05
0.7511234
-1.521223e-05
0.75111914
-1.5446116e-05
0.75111499
-1.5642547e-05
0.75111097
-1.5802848e-05
0.75110704
-1.5928642e-05
0.7511032
-1.6021842e-05
0.75109945
-1.6084842e-05
0.75109578
-1.6120566e-05
0.75109217
-1.6132984e-05
0.75108861
-1.6126435e-05
0.75108511
-1.6108142e-05
0.75108161
-1.6068958e-05
-1.5990959e-05
0.75000129
-7.5723506e-06
0.75000516
-2.273828e-05
0.75001215
-3.8672734e-05
0.75002104
-5.3673878e-05
0.75003182
-6.9592477e-05
0.7500463
-8.646065e-05
0.75006269
-0.00010250681
0.75008162
-0.00012015045
0.7501031
-0.00013699743
0.75012716
-0.0001554409
0.75015385
-0.00017366005
0.75018378
-0.00019281942
0.75021579
-0.00021106503
0.75025107
-0.00023072553
0.75028843
-0.000249307
0.75032846
-0.00026909513
0.75037171
-0.00028815008
0.75041753
-0.00030751038
0.75046521
-0.00032518882
0.75051582
-0.00034337707
0.75056861
-0.00036004509
0.75062275
-0.00037554601
0.75067919
-0.00038962045
0.75073704
-0.00040260203
0.75079594
-0.00041242445
0.7508555
-0.00042123428
0.7509153
-0.00042639294
0.75097425
-0.00042949655
0.75103306
-0.00042977942
0.75109063
-0.00042712774
0.75114642
-0.00042148774
0.75119994
-0.00041227211
0.75125008
-0.00040076794
0.75129701
-0.00038593154
0.75134033
-0.00036919339
0.7513803
-0.00035024493
0.75141546
-0.0003288316
0.75144564
-0.00030594204
0.75147195
-0.00028259108
0.75149378
-0.00025860092
0.75151061
-0.00023378754
0.75152379
-0.00020974853
0.75153233
-0.00018564269
0.75153771
-0.00016359085
0.75153842
-0.000140852
0.75153722
-0.00012124438
0.75153265
-0.00010251823
0.75152627
-8.5376992e-05
0.75151662
-6.9272011e-05
0.75150647
-5.6016332e-05
0.75149431
-4.3778556e-05
0.75148105
-3.3102049e-05
0.75146696
-2.3905605e-05
0.75145227
-1.6091081e-05
0.7514372
-9.5491118e-06
0.75142254
-4.7653447e-06
0.75140784
-4.1998514e-07
0.75139263
3.0018928e-06
0.75137822
5.6123413e-06
0.75136349
7.5175272e-06
0.75134972
8.2152728e-06
0.75133636
8.9986625e-06
0.75132344
9.3490378e-06
0.75131039
9.3404315e-06
0.75129843
9.0385549e-06
0.75128696
8.5012515e-06
0.75127599
7.1779185e-06
0.7512649
6.9152386e-06
0.7512555
5.3464753e-06
0.75124535
4.9074793e-06
0.75123626
3.2209736e-06
0.75122759
2.1123317e-06
0.75121934
9.9901887e-07
0.75121208
-1.0385708e-07
0.75120399
-5.8313433e-07
0.75119685
-2.2320286e-06
0.75119004
-3.2400614e-06
0.75118354
-4.202431e-06
0.75117733
-5.1148815e-06
0.75117139
-5.9743991e-06
0.75116571
-6.7790143e-06
0.75116026
-7.5275876e-06
0.75115503
-8.2196764e-06
0.75115001
-8.8553711e-06
0.75114517
-9.4352118e-06
0.7511405
-9.9600679e-06
0.75113599
-1.0431102e-05
0.75113163
-1.0849686e-05
0.7511274
-1.1217406e-05
0.75112329
-1.1536008e-05
0.7511193
-1.1807447e-05
0.7511154
-1.2033878e-05
0.7511116
-1.2217749e-05
0.75110787
-1.2361821e-05
0.75110422
-1.2469407e-05
0.75110063
-1.2544084e-05
0.75109709
-1.2591274e-05
0.7510936
-1.261422e-05
0.75109016
-1.2638974e-05
-1.2676146e-05
0.75000185
-8.8203677e-06
0.7500056
-2.647983e-05
0.75001122
-4.4289029e-05
0.7500199
-6.234912e-05
0.75003164
-8.1326573e-05
0.75004465
-9.9466095e-05
0.75006135
-0.00011920494
0.75007998
-0.00013877032
0.75010176
-0.00015877523
0.75012555
-0.00017921706
0.75015197
-0.00020007624
0.75018107
-0.000221916
0.75021349
-0.00024347819
0.75024805
-0.00026528258
0.75028597
-0.00028722339
0.75032605
-0.00030916938
0.75036947
-0.00033156116
0.75041497
-0.00035300904
0.75046429
-0.00037449721
0.75051489
-0.00039397855
0.75056844
-0.00041358472
0.75062412
-0.00043122233
0.75068169
-0.00044718229
0.75074084
-0.00046174844
0.75080122
-0.00047280102
0.75086243
-0.00048243535
0.75092401
-0.00048796462
0.75098546
-0.00049094173
0.75104625
-0.00049056723
0.75110584
-0.00048670358
0.75116364
-0.00047928732
0.75121911
-0.00046773669
0.75127111
-0.00045276025
0.75132034
-0.00043515695
0.75136516
-0.0004140097
0.75140581
-0.00039088431
0.75144199
-0.00036500867
0.75147351
-0.00033746342
0.75150029
-0.00030935975
0.7515217
-0.00028001463
0.75153905
-0.00025113866
0.75155132
-0.00022200828
0.75155933
-0.00019365672
0.7515634
-0.0001676616
0.75156448
-0.00014192619
0.75156172
-0.00011849333
0.75155554
-9.6330443e-05
0.7515475
-7.7344854e-05
0.7515374
-5.9175666e-05
0.75152561
-4.4219691e-05
0.75151245
-3.0621575e-05
0.75149824
-1.8896244e-05
0.75148326
-8.9313782e-06
0.75146777
-5.9654492e-07
0.75145257
5.6486168e-06
0.75143665
1.1153069e-05
0.75142076
1.5462413e-05
0.75140564
1.8118679e-05
0.75139019
2.1061818e-05
0.75137569
2.201532e-05
0.751361
2.2900623e-05
0.75134737
2.2623004e-05
0.75133364
2.308234e-05
0.75132101
2.196028e-05
0.75130891
2.1135664e-05
0.75129734
2.0073424e-05
0.75128568
1.8830543e-05
0.75127574
1.685481e-05
0.75126509
1.5990719e-05
0.75125612
1.3869009e-05
0.75124642
1.2922731e-05
0.75123775
1.0771756e-05
0.75122951
9.2385484e-06
0.75122166
7.7377139e-06
0.7512148
6.2815906e-06
0.75120708
5.4806825e-06
0.7512003
3.5392713e-06
0.75119383
2.2654826e-06
0.75118765
1.0619287e-06
0.75118175
-6.915064e-08
0.75117609
-1.1265977e-06
0.75117068
-2.1101355e-06
0.75116548
-3.0201684e-06
0.75116048
-3.857647e-06
0.75115567
-4.6239283e-06
0.75115104
-5.3206957e-06
0.75114656
-5.9498624e-06
0.75114222
-6.5135336e-06
0.75113802
-7.0139569e-06
0.75113394
-7.4535241e-06
0.75112996
-7.8347544e-06
0.75112609
-8.1603322e-06
0.7511223
-8.4331171e-06
0.7511186
-8.656269e-06
0.75111496
-8.833132e-06
0.75111138
-8.9679141e-06
0.75110785
-9.0637589e-06
0.75110436
-9.1282847e-06
0.75110087
-9.1477374e-06
-9.1281271e-06
0.75000121
-1.0031383e-05
0.75000485
-3.0112305e-05
0.7500109
-5.03376e-05
0.75001997
-7.1411624e-05
0.75003026
-9.1612507e-05
0.7500442
-0.00011339771
0.75006002
-0.00013501359
0.75007835
-0.00015709558
0.75009924
-0.00017966393
0.75012335
-0.00020332086
0.75014953
-0.00022624997
0.75017844
-0.00025081431
0.75021012
-0.00027515206
0.75024521
-0.0003003769
0.75028317
-0.00032517154
0.75032399
-0.00034998943
0.75036769
-0.00037525065
0.75041422
-0.00039953939
0.75046294
-0.00042320781
0.75051554
-0.00044657239
0.75057008
-0.00046811938
0.75062697
-0.00048810648
0.75068597
-0.00050617236
0.75074676
-0.00052254102
0.7508096
-0.00053563481
0.75087226
-0.00054508627
0.75093666
-0.00055235591
0.75100106
-0.0005553408
0.7510643
-0.00055379877
0.75112637
-0.00054876285
0.75118604
-0.00053895184
0.7512439
-0.00052558867
0.75129874
-0.00050760076
0.75135002
-0.00048643005
0.75139664
-0.00046062016
0.75143878
-0.00043301927
0.75147612
-0.00040234895
0.75150846
-0.00036979498
0.75153568
-0.00033657885
0.75155719
-0.00030152607
0.75157371
-0.00026765441
0.75158543
-0.00023373177
0.75159325
-0.00020147366
0.7515957
-0.00017011478
0.75159499
-0.00014121262
0.75159093
-0.00011443291
0.75158395
-8.9356682e-05
0.7515745
-6.788931e-05
0.75156297
-4.7655926e-05
0.75154918
-3.0429029e-05
0.75153468
-1.6127058e-05
0.75151921
-3.4269761e-06
0.75150306
7.2188889e-06
0.75148648
1.5978097e-05
0.7514697
2.2427292e-05
0.7514529
2.7950031e-05
0.75143624
3.2123961e-05
0.75141983
3.4520229e-05
0.75140439
3.6503704e-05
0.75138878
3.7624065e-05
0.75137426
3.7418028e-05
0.75135967
3.7212149e-05
0.75134623
3.6516072e-05
0.75133336
3.482642e-05
0.75132046
3.4031668e-05
0.75130873
3.1801136e-05
0.75129756
3.0001165e-05
0.75128692
2.748313e-05
0.75127682
2.6095075e-05
0.75126661
2.4071273e-05
0.75125809
2.1442479e-05
0.75124882
2.0036725e-05
0.75124058
1.7469953e-05
0.75123276
1.5560935e-05
0.75122532
1.3720787e-05
0.75121884
1.1958574e-05
0.7512115
1.0881804e-05
0.75120507
8.6919616e-06
0.75119894
7.1946695e-06
0.75119308
5.7902424e-06
0.75118748
4.4788525e-06
0.75118211
3.2598031e-06
0.75117696
2.1317163e-06
0.75117201
1.0927075e-06
0.75116725
1.4051329e-07
0.75116266
-7.2739398e-07
0.75115823
-1.5137358e-06
0.75115394
-2.221362e-06
0.75114978
-2.8532186e-06
0.75114573
-3.4123209e-06
0.7511418
-3.9017582e-06
0.75113797
-4.3247054e-06
0.75113422
-4.6844431e-06
0.75113054
-4.984412e-06
0.75112694
-5.2281679e-06
0.75112339
-5.4196271e-06
0.75111988
-5.5624943e-06
0.75111642
-5.6620362e-06
0.75111299
-5.7263337e-06
-5.7822723e-06
0.75000118
-1.1206601e-05
0.75000531
-3.4238438e-05
0.75001119
-5.6217769e-05
0.75001884
-7.9054304e-05
0.75003007
-0.00010283682
0.75004311
-0.00012643407
0.75005861
-0.00015050285
0.75007661
-0.00017508739
0.75009777
-0.00020081641
0.75012095
-0.00022649905
0.75014743
-0.00025272284
0.75017607
-0.00027945256
0.75020815
-0.00030722604
0.75024253
-0.00033475
0.75028046
-0.00036310011
0.75032139
-0.0003909138
0.75036474
-0.00041859112
0.7504117
-0.00044649285
0.75046223
-0.00047373636
0.75051506
-0.00049939896
0.75057067
-0.00052372118
0.75062948
-0.00054690728
0.75069065
-0.00056733543
0.75075328
-0.0005851642
0.7508176
-0.00059994854
0.75088377
-0.00061125165
0.75095068
-0.00061926304
0.75101717
-0.00062181835
0.7510838
-0.00062042248
0.75114871
-0.00061366466
0.7512118
-0.00060204244
0.75127239
-0.00058617493
0.75132981
-0.00056500968
0.75138342
-0.0005400335
0.75143266
-0.00050985897
0.75147647
-0.00047682398
0.75151509
-0.00044096151
0.75154827
-0.00040297801
0.75157532
-0.00036362159
0.75159744
-0.00032364874
0.75161358
-0.00028379201
0.75162458
-0.00024473052
0.75163017
-0.0002070662
0.75163196
-0.0001719072
0.7516298
-0.00013905538
0.75162357
-0.00010820404
0.75161436
-8.0145462e-05
0.75160264
-5.6176189e-05
0.75158949
-3.450187e-05
0.75157472
-1.5661673e-05
0.75155812
4.6339209e-07
0.75154066
1.4035398e-05
0.75152323
2.4645207e-05
0.7515055
3.3705766e-05
0.75148769
4.0233677e-05
0.75146999
4.5650949e-05
0.75145254
4.9570276e-05
0.75143546
5.1594143e-05
0.75141885
5.3114835e-05
0.75140336
5.3104691e-05
0.75138785
5.2923919e-05
0.75137355
5.1511441e-05
0.75135927
5.0795235e-05
0.75134622
4.7878766e-05
0.75133378
4.6462781e-05
0.75132136
4.4223596e-05
0.75131012
4.1229716e-05
0.75129886
3.8740643e-05
0.75128935
3.5602122e-05
0.75127976
3.3656488e-05
0.75127007
3.1132473e-05
0.75126205
2.8055609e-05
0.75125327
2.6248959e-05
0.7512455
2.3323876e-05
0.75123813
2.1094888e-05
0.75123112
1.8969225e-05
0.75122505
1.695244e-05
0.75121809
1.5648848e-05
0.75121203
1.3257076e-05
0.75120625
1.1580213e-05
0.75120071
1.001631e-05
0.75119541
8.5635492e-06
0.75119033
7.2194807e-06
0.75118544
5.9811948e-06
0.75118074
4.8454666e-06
0.75117621
3.8088625e-06
0.75117183
2.8678292e-06
0.75116759
2.0187493e-06
0.75116348
1.257981e-06
0.75115949
5.8187389e-07
0.7511556
-1.3218579e-08
0.75115181
-5.3095158e-07
0.75114809
-9.7498079e-07
0.75114446
-1.3490576e-06
0.75114089
-1.6568108e-06
0.75113737
-1.9024922e-06
0.75113389
-2.0886072e-06
0.75113045
-2.2228089e-06
0.75112702
-2.293989e-06
-2.3307292e-06
0.75000174
-1.234528e-05
0.75000456
-3.7055636e-05
0.75001087
-6.2522267e-05
0.75001889
-8.7063141e-05
0.75002923
-0.00011317773
0.75004195
-0.00013914668
0.75005709
-0.00016563783
0.75007532
-0.00019330668
0.7500955
-0.00022099131
0.75011831
-0.00024930882
0.75014445
-0.00027885423
0.7501734
-0.00030839477
0.75020465
-0.00033846961
0.75023949
-0.00036958297
0.75027739
-0.00040100176
0.75031844
-0.00043195243
0.75036267
-0.0004628157
0.75041011
-0.00049392637
0.75046075
-0.00052436972
0.75051513
-0.00055378202
0.75057257
-0.00058115359
0.7506323
-0.00060663051
0.7506953
-0.00063032495
0.75076066
-0.00065052149
0.75082802
-0.00066729667
0.7508969
-0.00068012989
0.75096678
-0.00068913163
0.75103702
-0.00069205843
0.75110635
-0.00068974728
0.75117523
-0.00068253626
0.75124228
-0.00066908672
0.75130672
-0.00065060887
0.75136719
-0.00062546722
0.75142296
-0.00059579746
0.75147459
-0.00056149184
0.75152036
-0.00052258844
0.75156045
-0.00048105059
0.7515946
-0.00043712627
0.7516221
-0.00039111252
0.75164357
-0.00034511742
0.75165919
-0.00029941177
0.75166925
-0.00025479775
0.75167416
-0.00021197838
0.75167379
-0.00017153718
0.75166926
-0.00013452861
0.75166113
-0.00010007082
0.75165054
-6.9560442e-05
0.75163684
-4.247546e-05
0.75162053
-1.8194076e-05
0.75160328
1.5819968e-06
0.75158552
1.8221448e-05
0.75156641
3.3139223e-05
0.75154748
4.3572144e-05
0.75152779
5.3387853e-05
0.75150818
5.9845896e-05
0.75148942
6.4411174e-05
0.75147105
6.7937091e-05
0.75145318
6.9458461e-05
0.7514365
6.9795491e-05
0.75141925
7.0349534e-05
0.75140388
6.8293076e-05
0.7513886
6.6789841e-05
0.75137461
6.477557e-05
0.75136072
6.1768733e-05
0.75134811
5.9073932e-05
0.75133615
5.6176919e-05
0.75132423
5.3150624e-05
0.75131351
4.9454601e-05
0.75130277
4.6340661e-05
0.75129318
4.3248197e-05
0.7512847
3.9608425e-05
0.75127551
3.7249816e-05
0.75126797
3.3787709e-05
0.75125965
3.1640774e-05
0.75125233
2.8415346e-05
0.75124538
2.5921498e-05
0.75123878
2.3562442e-05
0.75123309
2.1340151e-05
0.7512265
1.9855815e-05
0.75122077
1.7305246e-05
0.75121531
1.5489139e-05
0.75121007
1.380343e-05
0.75120505
1.2244482e-05
0.75120023
1.0808271e-05
0.75119559
9.4905414e-06
0.75119111
8.2869103e-06
0.75118679
7.1929521e-06
0.75118261
6.2042542e-06
0.75117855
5.3164568e-06
0.75117461
4.5252745e-06
0.75117077
3.8265032e-06
0.75116702
3.2160066e-06
0.75116336
2.689739e-06
0.75115976
2.2436583e-06
0.75115623
1.8739815e-06
0.75115275
1.5763988e-06
0.75114931
1.3485414e-06
0.75114591
1.1826859e-06
0.75114253
1.0881267e-06
1.0262168e-06
0.7500011
-1.3445233e-05
0.75000501
-4.0957271e-05
0.75000993
-6.7438547e-05
0.75001829
-9.5418281e-05
0.75002833
-0.00012320783
0.75004069
-0.00015150025
0.75005603
-0.00018097665
0.75007323
-0.00021050453
0.75009298
-0.00024073308
0.75011597
-0.00027229083
0.7501411
-0.00030398006
0.75016969
-0.00033697526
0.75020124
-0.00037001853
0.75023588
-0.00040421378
0.7502731
-0.00043822312
0.75031482
-0.00047366272
0.75035991
-0.00050789621
0.75040782
-0.00054183379
0.75045978
-0.00057632869
0.75051458
-0.00060857378
0.75057334
-0.00063990697
0.75063533
-0.00066861103
0.75070033
-0.00069532434
0.75076867
-0.0007188492
0.75083874
-0.00073736733
0.75091129
-0.00075266735
0.75098452
-0.00076235594
0.75105837
-0.00076589931
0.75113267
-0.00076404881
0.75120542
-0.00075527102
0.75127632
-0.00073998242
0.75134389
-0.00071817285
0.75140845
-0.00069002492
0.75146798
-0.00065532097
0.75152234
-0.00061584422
0.7515703
-0.00057055192
0.75161201
-0.00052275935
0.75164717
-0.00047228238
0.75167506
-0.00041899478
0.75169632
-0.00036638377
0.75171119
-0.00031428278
0.75171943
-0.00026303486
0.75172211
-0.00021466137
0.7517198
-0.00016922773
0.75171251
-0.00012723933
0.75170207
-8.9640527e-05
0.75168853
-5.6019885e-05
0.75167188
-2.5830025e-05
0.75165449
-8.1303736e-07
0.75163508
2.0989678e-05
0.7516141
3.9201571e-05
0.75159314
5.4096218e-05
0.75157133
6.5375972e-05
0.75155076
7.3959775e-05
0.75153043
8.0166424e-05
0.75150993
8.490712e-05
0.75149059
8.7273467e-05
0.75147131
8.874082e-05
0.75145335
8.7755078e-05
0.75143675
8.6944987e-05
0.75141973
8.5306886e-05
0.75140411
8.2413787e-05
0.75138986
7.9017474e-05
0.75137578
7.5848406e-05
0.75136304
7.1813838e-05
0.75135101
6.8207906e-05
0.75133965
6.4505823e-05
0.75132833
6.0770238e-05
0.75131822
5.6450918e-05
0.75130868
5.2790453e-05
0.75129907
4.9219737e-05
0.75129115
4.5162182e-05
0.7512825
4.2439167e-05
0.75127549
3.8659651e-05
0.75126767
3.623658e-05
0.75126082
3.2771203e-05
0.75125432
3.0069112e-05
0.75124814
2.752957e-05
0.75124225
2.575211e-05
0.75123663
2.2930942e-05
0.75123126
2.0865287e-05
0.75122612
1.8949662e-05
0.75122119
1.717912e-05
0.75121646
1.5548437e-05
0.7512119
1.4052251e-05
0.7512075
1.2685171e-05
0.75120326
1.1441861e-05
0.75119915
1.0317091e-05
0.75119516
9.3057674e-06
0.75119129
8.4029507e-06
0.75118751
7.6038643e-06
0.75118382
6.9038911e-06
0.75118021
6.2985957e-06
0.75117667
5.7836361e-06
0.75117319
5.3550352e-06
0.75116976
5.0083919e-06
0.75116636
4.7413965e-06
0.751163
4.5462055e-06
0.75115966
4.4287666e-06
4.3373399e-06
0.75000166
-1.4503247e-05
0.75000424
-4.3533461e-05
0.75001016
-7.3349598e-05
0.75001764
-0.00010289441
0.75002733
-0.00013289299
0.75003989
-0.00016405237
0.75005418
-0.00019526811
0.75007091
-0.00022722159
0.75009076
-0.00026057612
0.75011264
-0.00029417267
0.75013789
-0.00032922507
0.75016544
-0.00036451692
0.75019663
-0.00040119656
0.75023099
-0.00043857106
0.75026927
-0.00047650092
0.75031041
-0.00051479462
0.75035512
-0.00055260093
0.7504047
-0.00059140881
0.75045681
-0.00062843732
0.75051388
-0.00066563718
0.75057407
-0.0007000895
0.75063848
-0.00073301
0.75070631
-0.00076315459
0.7507767
-0.00078922897
0.75085105
-0.0008117155
0.75092708
-0.00082868209
0.75100415
-0.00083942159
0.75108334
-0.00084508675
0.75116142
-0.00084211657
0.75123925
-0.00083309346
0.75131524
-0.00081596658
0.75138776
-0.00079069471
0.75145582
-0.000758071
0.75151963
-0.00071913455
0.75157656
-0.00067276258
0.75162767
-0.00062166189
0.75167123
-0.00056631956
0.75170691
-0.00050795602
0.75173577
-0.00044786131
0.75175612
-0.00038672649
0.75176942
-0.00032758626
0.75177613
-0.00026974684
0.75177682
-0.00021536097
0.75177158
-0.0001639843
0.75176231
-0.00011797927
0.75174857
-7.5900477e-05
0.75173167
-3.9126328e-05
0.75171231
-6.468747e-06
0.7516911
2.0386596e-05
0.75166862
4.3466028e-05
0.75164535
6.2466128e-05
0.75162231
7.713313e-05
0.75159924
8.8443426e-05
0.75157641
9.6781095e-05
0.75155345
0.00010312612
0.75153232
0.0001060375
0.75151133
0.0001082593
0.75149177
0.00010829912
0.75147248
0.00010703883
0.7514547
0.00010472758
0.75143782
0.00010218539
0.75142243
9.7798204e-05
0.75140732
9.4132936e-05
0.75139304
9.012485e-05
0.75137957
8.5287985e-05
0.75136745
8.0319281e-05
0.75135546
7.6499254e-05
0.75134534
7.0885883e-05
0.75133466
6.7136359e-05
0.75132517
6.2285019e-05
0.75131622
5.8165469e-05
0.75130719
5.4199514e-05
0.75129983
4.9802375e-05
0.75129171
4.6788223e-05
0.75128519
4.2759547e-05
0.75127784
4.0123712e-05
0.75127144
3.6476992e-05
0.75126536
3.3620751e-05
0.75126017
3.0950561e-05
0.75125405
2.9062839e-05
0.75124877
2.6149079e-05
0.75124372
2.4006294e-05
0.75123888
2.2027105e-05
0.75123423
2.0204996e-05
0.75122976
1.8533437e-05
0.75122544
1.7005989e-05
0.75122127
1.5616369e-05
0.75121723
1.4358498e-05
0.75121331
1.3226526e-05
0.7512095
1.221485e-05
0.75120579
1.1318116e-05
0.75120216
1.0531206e-05
0.75119861
9.8492791e-06
0.75119512
9.2676476e-06
0.7511917
8.7822007e-06
0.75118832
8.3880828e-06
0.75118497
8.0839076e-06
0.75118166
7.8592325e-06
0.75117835
7.7400708e-06
7.6801803e-06
0.75000161
-1.5515149e-05
0.75000466
-4.6571779e-05
0.75000975
-7.8434181e-05
0.75001692
-0.00011006109
0.75002682
-0.00014279288
0.75003773
-0.00017495279
0.75005212
-0.00020965204
0.75006829
-0.00024338849
0.75008756
-0.00027984234
0.75010947
-0.00031606895
0.75013354
-0.0003532971
0.75016176
-0.00039272357
0.75019247
-0.00043190544
0.75022646
-0.00047255772
0.75026391
-0.00051394314
0.75030559
-0.00055646536
0.75035106
-0.0005980642
0.75040046
-0.00064080656
0.75045451
-0.00068248118
0.75051207
-0.00072319487
0.75057436
-0.00076237237
0.75064071
-0.00079935356
0.75071097
-0.00083340393
0.75078547
-0.0008637264
0.75086264
-0.00088887647
0.75094256
-0.00090859221
0.75102577
-0.00092262624
0.75110907
-0.00092838439
0.75119334
-0.00092637774
0.75127632
-0.00091606876
0.75135688
-0.00089652108
0.75143504
-0.00086884883
0.75150902
-0.00083204375
0.75157649
-0.00078660061
0.75163825
-0.00073451716
0.75169165
-0.00067506078
0.75173727
-0.00061193833
0.75177473
-0.0005454122
0.75180269
-0.00047582773
0.7518231
-0.000407137
0.75183511
-0.00033959893
0.75183928
-0.00027391854