/*--------------------------------*- C++ -*----------------------------------*\
| =========                 |                                                 |
| \\      /  F ield         | OpenFOAM: The Open Source CFD Toolbox           |
|  \\    /   O peration     | Version:  2406                                  |
|   \\  /    A nd           | Website:  www.openfoam.com                      |
|    \\/     M anipulation  |                                                 |
\*---------------------------------------------------------------------------*/
FoamFile
{
    version     2.0;
    format      ascii;
    arch        "LSB;label=32;scalar=64";
    class       volVectorField;
    location    "900";
    object      U;
}
// * * * * * * * * * * * * * * * * * * * * * * * * * * * * * * * * * * * * * //

dimensions      [0 1 -1 0 0 0 0];

internalField   nonuniform List<vector> 
16045
(
(30.000021 -2.9910433e-05 0)
(30.000161 -0.00010527039 0)
(30.000412 -0.00019902565 0)
(30.000767 -0.00030791804 0)
(30.001219 -0.00042959476 0)
(30.001769 -0.00056306928 0)
(30.002418 -0.00070774718 -9.3363627e-25)
(30.003167 -0.00086307582 0)
(30.004016 -0.0010285584 0)
(30.004967 -0.0012037516 0)
(30.006018 -0.0013882193 0)
(30.007171 -0.0015814843 0)
(30.008425 -0.0017829985 7.9536744e-25)
(30.009781 -0.0019921094 0)
(30.011236 -0.0022080429 0)
(30.012789 -0.0024298751 0)
(30.014438 -0.0026565171 0)
(30.016179 -0.0028866911 -2.95196e-25)
(30.018007 -0.0031189321 -2.7848085e-25)
(30.019916 -0.0033515676 0)
(30.0219 -0.0035827381 0)
(30.023948 -0.0038103887 0)
(30.026053 -0.004032308 0)
(30.028201 -0.0042461381 0)
(30.030381 -0.0044494342 2.8589122e-25)
(30.032578 -0.0046396958 0)
(30.034778 -0.0048144475 1.7360377e-25)
(30.036964 -0.004971285 9.6695653e-27)
(30.039119 -0.0051079702 6.8624848e-27)
(30.041227 -0.0052224855 -6.440902e-27)
(30.04327 -0.0053131298 2.0626576e-27)
(30.045233 -0.0053785676 2.7762234e-27)
(30.047099 -0.0054179034 -5.2594318e-27)
(30.048855 -0.0054307226 1.465419e-25)
(30.050487 -0.005417111 -1.2608555e-26)
(30.051984 -0.005377674 -2.067162e-27)
(30.053339 -0.0053135158 1.4674538e-26)
(30.054545 -0.0052262042 0)
(30.055598 -0.0051177182 1.9577925e-26)
(30.056497 -0.0049903727 3.0671026e-25)
(30.057244 -0.0048467433 0)
(30.057843 -0.0046895691 0)
(30.058298 -0.004521665 3.6860105e-25)
(30.058617 -0.0043458387 0)
(30.058811 -0.0041648054 3.8058481e-25)
(30.058887 -0.0039811262 0)
(30.058858 -0.0037971501 0)
(30.058734 -0.0036149778 0)
(30.058527 -0.0034364342 0)
(30.058248 -0.0032630584 0)
(30.057908 -0.0030961034 0)
(30.057517 -0.0029365456 0)
(30.057085 -0.0027851035 0)
(30.05662 -0.0026422588 0)
(30.056132 -0.0025082853 0)
(30.055627 -0.0023832741 0)
(30.055111 -0.0022671647 0)
(30.05459 -0.0021597714 -2.8075003e-25)
(30.054069 -0.0020608077 0)
(30.053551 -0.0019699121 0)
(30.053041 -0.0018866686 0)
(30.05254 -0.0018106224 0)
(30.052051 -0.001741299 0)
(30.051576 -0.0016782139 0)
(30.051116 -0.0016208851 0)
(30.050671 -0.0015688394 0)
(30.050242 -0.0015216208 -1.7873823e-25)
(30.04983 -0.0014787918 0)
(30.049434 -0.0014399403 0)
(30.049055 -0.001404679 0)
(30.048692 -0.0013726476 0)
(30.048344 -0.0013435123 0)
(30.048012 -0.0013169664 0)
(30.047694 -0.0012927281 0)
(30.047391 -0.0012705414 0)
(30.047101 -0.0012501725 0)
(30.046823 -0.0012314107 0)
(30.046558 -0.0012140646 0)
(30.046304 -0.0011979626 0)
(30.046061 -0.0011829496 0)
(30.045827 -0.001168887 0)
(30.045604 -0.0011556501 0)
(30.045389 -0.001143128 0)
(30.045182 -0.001131221 0)
(30.044983 -0.0011198409 0)
(30.044791 -0.0011089086 0)
(30.044606 -0.001098355 0)
(30.044427 -0.001088118 0)
(30.044253 -0.0010781443 0)
(30.044084 -0.0010683869 0)
(30.04392 -0.0010588067 0)
(30.04376 -0.0010493709 0)
(30.043605 -0.0010400563 0)
(30.043452 -0.0010308445 0)
(30.043304 -0.001021743 0)
(30.043157 -0.0010127313 0)
(30.043017 -0.001003976 0)
(30.042869 -0.00099518401 0)
(30.042759 -0.00098809195 0)
(30.042559 -0.00097912793 0)
(30.000014 -8.8263771e-05 0)
(30.000126 -0.00028516931 0)
(30.000349 -0.000505924 -9.8370856e-25)
(30.000681 -0.00074513286 0)
(30.001113 -0.00099932268 0)
(30.001643 -0.0012674897 0)
(30.002274 -0.0015491516 9.3357271e-25)
(30.003006 -0.0018436976 0)
(30.003839 -0.0021504884 9.0291445e-25)
(30.004773 -0.0024689011 0)
(30.00581 -0.0027982475 0)
(30.006948 -0.0031376873 0)
(30.00819 -0.0034861767 -7.9530081e-25)
(30.009533 -0.0038424251 0)
(30.010978 -0.0042048614 0)
(30.012523 -0.0045715979 0)
(30.014165 -0.0049404077 -9.8370678e-25)
(30.015901 -0.0053086994 3.202709e-25)
(30.017727 -0.0056735222 5.7359814e-25)
(30.019637 -0.0060315636 -5.3612487e-25)
(30.021625 -0.006379181 0)
(30.023681 -0.0067124325 0)
(30.025797 -0.0070271465 7.8510073e-25)
(30.027962 -0.0073189906 3.4204421e-25)
(30.030161 -0.0075835809 -2.8585886e-25)
(30.032382 -0.0078165885 0)
(30.03461 -0.0080138835 -1.8325303e-25)
(30.036827 -0.0081716696 0)
(30.039018 -0.0082866437 0)
(30.041164 -0.0083561307 0)
(30.043249 -0.00837823 -9.3092641e-27)
(30.045254 -0.0083519193 9.3086572e-27)
(30.047165 -0.0082771483 0)
(30.048964 -0.0081548827 -1.0503111e-25)
(30.05064 -0.0079871084 -4.1493102e-26)
(30.05218 -0.0077767921 0)
(30.053574 -0.0075277949 -3.3479547e-26)
(30.054817 -0.0072447425 -3.3735512e-27)
(30.055904 -0.0069328643 3.6851177e-26)
(30.056832 -0.0065978055 6.657501e-27)
(30.057604 -0.0062454289 0)
(30.058222 -0.0058816164 0)
(30.058693 -0.0055120796 7.1561436e-27)
(30.059024 -0.0051421976 0)
(30.059223 -0.0047768777 -3.8056088e-25)
(30.059302 -0.0044204559 0)
(30.059272 -0.0040766278 3.8805847e-25)
(30.059143 -0.0037484181 0)
(30.058929 -0.003438177 0)
(30.05864 -0.003147607 -3.7244162e-25)
(30.058288 -0.0028778067 3.6397508e-25)
(30.057885 -0.0026293313 0)
(30.057439 -0.0024022627 0)
(30.05696 -0.002196283 0)
(30.056456 -0.0020107488 -1.5675076e-25)
(30.055936 -0.0018447613 -1.5140497e-25)
(30.055406 -0.0016972336 0)
(30.05487 -0.0015669492 2.8074025e-25)
(30.054335 -0.0014526114 0)
(30.053805 -0.0013528892 0)
(30.053282 -0.0012664507 0)
(30.05277 -0.0011919916 -2.3392073e-25)
(30.05227 -0.0011282571 0)
(30.051785 -0.0010740572 0)
(30.051315 -0.0010282773 0)
(30.050862 -0.00098988407 0)
(30.050426 -0.00095792952 1.7873189e-25)
(30.050007 -0.00093154962 0)
(30.049605 -0.00090996447 0)
(30.04922 -0.00089247363 0)
(30.048852 -0.00087845273 -1.4269289e-25)
(30.048499 -0.0008673475 0)
(30.048163 -0.00085866924 0)
(30.047842 -0.00085198872 0)
(30.047535 -0.0008469311 0)
(30.047242 -0.00084316997 0)
(30.046962 -0.00084042294 0)
(30.046694 -0.00083844614 0)
(30.046439 -0.00083703046 0)
(30.046194 -0.00083599682 0)
(30.045959 -0.00083519314 0)
(30.045734 -0.00083449035 0)
(30.045518 -0.00083378015 0)
(30.04531 -0.00083297165 0)
(30.045111 -0.00083198992 0)
(30.044918 -0.00083077322 0)
(30.044732 -0.00082927224 0)
(30.044552 -0.00082744795 0)
(30.044378 -0.00082527159 0)
(30.044209 -0.0008227232 0)
(30.044045 -0.00081979268 0)
(30.043885 -0.00081647924 0)
(30.043729 -0.00081279514 0)
(30.043576 -0.00080876489 0)
(30.043427 -0.00080444389 0)
(30.04328 -0.00079989514 0)
(30.04314 -0.00079532889 0)
(30.042991 -0.00079080147 0)
(30.042881 -0.00078744095 0)
(30.042668 -0.00078400303 0)
(30.000012 -0.00014057458 0)
(30.000115 -0.00042816452 0)
(30.000331 -0.00072565636 9.8370011e-25)
(30.000658 -0.0010325276 0)
(30.001086 -0.0013484602 0)
(30.001613 -0.0016740782 0)
(30.00224 -0.0020099545 4.6667509e-25)
(30.002968 -0.002356231 -4.6665757e-25)
(30.003798 -0.0027127728 -9.0288915e-25)
(30.004729 -0.0030792663 0)
(30.005763 -0.0034551751 0)
(30.0069 -0.0038396789 0)
(30.008141 -0.0042316282 8.0969426e-25)
(30.009485 -0.0046295181 0)
(30.010931 -0.0050314557 0)
(30.012479 -0.0054351331 3.6669643e-25)
(30.014127 -0.0058378055 1.0059622e-24)
(30.015871 -0.0062362839 0)
(30.017707 -0.006626939 -5.8797969e-25)
(30.019631 -0.0070057257 5.3608918e-25)
(30.021635 -0.0073682199 -2.3394823e-25)
(30.023711 -0.0077096812 4.7263824e-25)
(30.02585 -0.0080251455 2.2107589e-25)
(30.02804 -0.0083095296 3.523075e-25)
(30.030269 -0.0085577682 0)
(30.032523 -0.008764977 4.8462834e-25)
(30.034785 -0.0089266183 0)
(30.037039 -0.0090386883 2.7290879e-25)
(30.039268 -0.0090978991 0)
(30.041453 -0.0091018622 6.9426729e-26)
(30.043577 -0.0090492328 -2.0882499e-26)
(30.04562 -0.0089398424 0)
(30.047566 -0.0087747707 -3.2714096e-26)
(30.049399 -0.008556375 3.2712369e-26)
(30.051105 -0.0082882506 0)
(30.05267 -0.0079751444 -2.3098523e-25)
(30.054086 -0.0076227929 -6.8837155e-26)
(30.055344 -0.0072377264 6.8835429e-26)
(30.05644 -0.0068270307 0)
(30.057374 -0.0063980783 8.4255809e-27)
(30.058145 -0.005958271 3.5931195e-25)
(30.058757 -0.005514782 -3.7354133e-25)
(30.059218 -0.0050743306 -3.7571926e-25)
(30.059534 -0.0046429962 7.8275628e-25)
(30.059716 -0.0042260807 3.9542019e-25)
(30.059775 -0.0038280146 0)
(30.059722 -0.0034523204 4.0209854e-25)
(30.05957 -0.0031016147 -3.9127276e-25)
(30.059332 -0.0027776482 -1.8910198e-25)
(30.059019 -0.0024813787 5.6154786e-25)
(30.058644 -0.0022130598 -3.6397578e-25)
(30.058217 -0.0019723449 0)
(30.05775 -0.0017583929 0)
(30.057251 -0.0015699763 0)
(30.056729 -0.0014055788 0)
(30.056192 -0.0012634881 1.5690217e-25)
(30.055647 -0.0011418734 6.3518863e-27)
(30.055098 -0.001038853 4.2983214e-25)
(30.054551 -0.00095254908 0)
(30.054011 -0.00088113214 0)
(30.053479 -0.00082285129 0)
(30.05296 -0.00077605943 2.3392321e-25)
(30.052454 -0.00073922683 -2.2288594e-25)
(30.051964 -0.00071095128 0)
(30.051491 -0.00068996036 -2.003448e-25)
(30.051034 -0.00067511032 0)
(30.050596 -0.00066538248 0)
(30.050175 -0.00065987655 0)
(30.049772 -0.00065780267 0)
(30.049386 -0.00065847332 0)
(30.049018 -0.00066129361 1.4269381e-25)
(30.048666 -0.0006657523 0)
(30.04833 -0.00067141306 -1.2659081e-25)
(30.048009 -0.00067790586 0)
(30.047703 -0.0006849191 0)
(30.047411 -0.00069219248 0)
(30.047132 -0.00069950989 0)
(30.046866 -0.00070669395 0)
(30.046611 -0.00071360009 0)
(30.046367 -0.00072011231 0)
(30.046134 -0.00072613845 0)
(30.04591 -0.00073160712 0)
(30.045695 -0.00073646386 0)
(30.045489 -0.00074066914 0)
(30.04529 -0.00074419531 0)
(30.045098 -0.00074702543 0)
(30.044913 -0.00074915111 0)
(30.044735 -0.00075057199 0)
(30.044561 -0.0007512945 0)
(30.044393 -0.00075133217 0)
(30.04423 -0.00075070561 0)
(30.044071 -0.00074944385 0)
(30.043915 -0.00074758726 0)
(30.043764 -0.00074518927 0)
(30.043615 -0.00074233207 0)
(30.043469 -0.0007391114 0)
(30.043328 -0.00073574546 0)
(30.04318 -0.00073232424 0)
(30.043069 -0.00072975905 0)
(30.042864 -0.00072687978 0)
(30.000011 -0.00018683842 0)
(30.00011 -0.00056322423 0)
(30.000317 -0.00094754937 0)
(30.000633 -0.0013428454 0)
(30.001049 -0.0017501984 0)
(30.001563 -0.0021702603 0)
(30.002177 -0.0026035368 0)
(30.002892 -0.0030502031 0)
(30.003708 -0.0035100948 0)
(30.004626 -0.0039827646 0)
(30.005647 -0.0044674626 0)
(30.006773 -0.0049630792 0)
(30.008003 -0.0054680895 -1.2296534e-24)
(30.009338 -0.0059805077 -3.9946671e-25)
(30.010778 -0.0064978449 0)
(30.012322 -0.0070170723 -2.1478403e-24)
(30.013969 -0.0075345906 6.8101753e-25)
(30.015715 -0.0080462196 -1.5879048e-24)
(30.017557 -0.0085471971 8.9505043e-25)
(30.019491 -0.0090322076 0)
(30.02151 -0.0094954331 1.0105034e-24)
(30.023606 -0.0099306355 -4.4818379e-25)
(30.025769 -0.010331271 -7.9657508e-25)
(30.02799 -0.010690636 1.2977303e-26)
(30.030254 -0.011002041 0)
(30.032547 -0.011259033 -5.9382031e-25)
(30.034854 -0.011455611 4.9416442e-25)
(30.037157 -0.01158649 -2.7288669e-25)
(30.039438 -0.011647337 0)
(30.041677 -0.011635022 -1.9285646e-27)
(30.043856 -0.01154782 1.7087966e-26)
(30.045956 -0.011385582 4.4521526e-26)
(30.047957 -0.011149843 1.8781531e-25)
(30.049842 -0.010843851 0)
(30.051597 -0.010472524 0)
(30.053207 -0.01004232 2.3096914e-25)
(30.054662 -0.0095610228 0)
(30.055953 -0.0090374648 -7.7662372e-26)
(30.057076 -0.0084812021 7.7661228e-26)
(30.058029 -0.0079021504 -3.4131007e-25)
(30.058813 -0.0073102282 1.1496778e-26)
(30.059432 -0.0067150121 -3.9646663e-25)
(30.059893 -0.0061254313 7.9085922e-25)
(30.060204 -0.0055495229 2.1886022e-26)
(30.060375 -0.0049942498 4.1637632e-25)
(30.06042 -0.0044653873 8.129461e-25)
(30.06035 -0.0039674761 1.8577949e-26)
(30.060178 -0.0035038407 3.9126752e-25)
(30.059919 -0.0030766462 -7.8665099e-25)
(30.059584 -0.0026870075 0)
(30.059186 -0.0023351099 0)
(30.058736 -0.0020203547 -7.288331e-25)
(30.058247 -0.0017415036 0)
(30.057727 -0.0014968211 0)
(30.057185 -0.0012842072 0)
(30.056629 -0.0011013171 0)
(30.056066 -0.00094566537 0)
(30.055501 -0.00081471258 -2.8491822e-25)
(30.05494 -0.00070593784 -6.8139166e-25)
(30.054386 -0.0006168902 3.9437522e-25)
(30.053843 -0.00054523396 -2.4813091e-25)
(30.053313 -0.00048877487 -2.3568239e-25)
(30.052798 -0.00044548017 2.2288729e-25)
(30.052299 -0.0004134866 0)
(30.051819 -0.00039110649 -3.5017974e-28)
(30.051356 -0.0003768224 -1.8989073e-25)
(30.050912 -0.00036928326 0)
(30.050487 -0.00036729462 0)
(30.05008 -0.00036980908 0)
(30.049691 -0.00037591287 0)
(30.049319 -0.00038481575 0)
(30.048965 -0.00039583769 0)
(30.048627 -0.00040839782 1.2659094e-25)
(30.048304 -0.00042200293 -1.1885379e-25)
(30.047997 -0.000436237 0)
(30.047703 -0.00045075236 0)
(30.047423 -0.00046526035 0)
(30.047156 -0.00047952354 0)
(30.046901 -0.00049334876 0)
(30.046657 -0.00050658066 0)
(30.046423 -0.00051909624 0)
(30.046199 -0.00053079985 0)
(30.045984 -0.00054161908 0)
(30.045777 -0.00055150091 0)
(30.045579 -0.00056040884 0)
(30.045387 -0.00056832001 0)
(30.045202 -0.00057522342 0)
(30.045023 -0.00058111806 0)
(30.04485 -0.00058601213 0)
(30.044682 -0.00058992237 0)
(30.044519 -0.00059287448 0)
(30.04436 -0.00059490389 0)
(30.044205 -0.00059605864 0)
(30.044053 -0.00059640156 0)
(30.043905 -0.00059602119 0)
(30.043758 -0.00059502594 0)
(30.043618 -0.00059360494 0)
(30.043468 -0.00059188775 0)
(30.043358 -0.00059047172 0)
(30.04314 -0.00058871592 0)
(30.000011 -0.0002307598 0)
(30.000105 -0.00069424488 0)
(30.000306 -0.0011639662 0)
(30.000613 -0.0016429042 0)
(30.001021 -0.0021322316 0)
(30.001526 -0.0026326087 -9.7804251e-25)
(30.002131 -0.0031446983 0)
(30.002837 -0.003668956 0)
(30.003645 -0.004205459 0)
(30.004556 -0.0047539042 9.0828644e-25)
(30.00557 -0.0053135936 -8.8487795e-25)
(30.006691 -0.0058833792 1.7180317e-24)
(30.007917 -0.00646159 8.1945035e-25)
(30.009251 -0.0070459799 0)
(30.010691 -0.0076336736 7.6644364e-25)
(30.012239 -0.0082211299 1.0859425e-24)
(30.013893 -0.0088040997 -6.6122798e-25)
(30.015651 -0.0093776186 2.9160063e-24)
(30.01751 -0.0099360095 1.2160315e-24)
(30.019465 -0.010472921 8.5838769e-25)
(30.021511 -0.010981388 -7.4395584e-25)
(30.023639 -0.011453939 9.2988815e-25)
(30.025841 -0.011882736 0)
(30.028106 -0.012259764 -7.0719419e-25)
(30.03042 -0.01257705 6.1197577e-25)
(30.032769 -0.012826938 -1.0031032e-24)
(30.035137 -0.013002373 -3.8490908e-25)
(30.037504 -0.013097222 0)
(30.039852 -0.013106588 0)
(30.042161 -0.013027112 -4.8430022e-27)
(30.044409 -0.012857236 7.0852666e-26)
(30.046577 -0.012597413 -7.1562894e-26)
(30.048643 -0.012250231 -4.3164673e-25)
(30.050589 -0.011820444 -2.6276155e-25)
(30.052398 -0.011314895 2.0628424e-25)
(30.054055 -0.010742327 1.826324e-26)
(30.055548 -0.010113091 -1.3144726e-25)
(30.056869 -0.0094387678 -3.1761134e-25)
(30.058012 -0.0087317248 0)
(30.058975 -0.0080046391 3.6679984e-25)
(30.05976 -0.0072700214 3.9916035e-25)
(30.06037 -0.0065397757 1.567906e-24)
(30.060815 -0.0058248132 -7.9082451e-25)
(30.061102 -0.0051347534 2.6074332e-26)
(30.061245 -0.0044777088 -2.4845963e-24)
(30.061256 -0.0038601762 2.3022869e-26)
(30.061149 -0.0032870037 -8.086978e-25)
(30.060938 -0.0027614471 8.190692e-25)
(30.060638 -0.0022852803 7.8663984e-25)
(30.060263 -0.0018589595 0)
(30.059825 -0.0014818063 7.6423797e-25)
(30.059338 -0.0011522121 1.4694865e-24)
(30.058812 -0.00086783772 7.1536074e-25)
(30.058258 -0.00062580499 6.8883322e-25)
(30.057685 -0.00042287081 0)
(30.0571 -0.00025557971 0)
(30.056512 -0.00012039211 -6.0581654e-25)
(30.055924 -1.3791538e-05 0)
(30.055343 6.7634505e-05 5.4792896e-25)
(30.054771 0.00012713347 -2.6090961e-25)
(30.054213 0.00016774343 2.4812963e-25)
(30.053669 0.00019226604 2.3568092e-25)
(30.053143 0.00020325192 -2.2370453e-25)
(30.052636 0.00020299672 -2.1183956e-25)
(30.052148 0.00019354462 2.0069447e-25)
(30.051679 0.00017669934 3.8315896e-28)
(30.05123 0.00015403752 0)
(30.050801 0.00012692443 -1.6905274e-25)
(30.050391 9.6533026e-05 0)
(30.050001 6.3862411e-05 0)
(30.049628 2.9755776e-05 0)
(30.049273 -5.0816734e-06 0)
(30.048935 -4.0065891e-05 0)
(30.048613 -7.471888e-05 1.1885381e-25)
(30.048306 -0.0001086538 -1.1107683e-25)
(30.048014 -0.00014156304 0)
(30.047735 -0.00017320584 0)
(30.047469 -0.00020339864 0)
(30.047215 -0.00023200579 0)
(30.046972 -0.00025893181 0)
(30.04674 -0.00028411438 0)
(30.046518 -0.00030751849 0)
(30.046304 -0.0003291312 0)
(30.046099 -0.00034895751 0)
(30.045902 -0.00036701655 0)
(30.045712 -0.00038333893 0)
(30.045529 -0.00039796415 0)
(30.045352 -0.00041093919 0)
(30.04518 -0.00042231719 0)
(30.045014 -0.00043215718 0)
(30.044852 -0.00044052419 0)
(30.044694 -0.0004474904 0)
(30.04454 -0.00045313702 0)
(30.044389 -0.00045755765 0)
(30.044242 -0.00046086235 0)
(30.044096 -0.00046318536 0)
(30.043957 -0.00046468595 0)
(30.043808 -0.00046557404 0)
(30.043697 -0.00046603327 0)
(30.043489 -0.00046632681 0)
(30.000011 -0.00027309037 0)
(30.000102 -0.00082086618 0)
(30.000296 -0.0013738333 0)
(30.000596 -0.0019352204 0)
(30.000995 -0.0025070517 0)
(30.00149 -0.0030907423 9.7802579e-25)
(30.002083 -0.0036874932 -9.757617e-25)
(30.002778 -0.0042981735 9.5978372e-25)
(30.003574 -0.0049231669 0)
(30.004473 -0.0055623496 -9.0825927e-25)
(30.005476 -0.0062150813 1.7824112e-24)
(30.006586 -0.0068801542 -3.4618104e-24)
(30.007804 -0.0075557212 0)
(30.009132 -0.0082392335 -2.0207424e-24)
(30.010569 -0.0089273775 -7.4913038e-25)
(30.012117 -0.0096160258 3.7736143e-25)
(30.013775 -0.010300197 0)
(30.015542 -0.010974033 2.5705367e-26)
(30.017415 -0.0116308 -1.5114975e-24)
(30.019391 -0.012262928 3.1931228e-25)
(30.021463 -0.012862081 -2.103353e-24)
(30.023625 -0.01341928 -1.3737838e-24)
(30.025869 -0.013925066 2.1341481e-24)
(30.028182 -0.014369728 0)
(30.030552 -0.014743569 -1.7209238e-24)
(30.032964 -0.015037241 8.6234362e-25)
(30.0354 -0.015242095 7.9233199e-25)
(30.037841 -0.015350583 1.1212304e-25)
(30.040267 -0.015356652 -5.5840028e-26)
(30.042657 -0.015256125 -1.0967195e-26)
(30.044986 -0.015047043 -4.5795451e-26)
(30.047233 -0.014729926 -1.0245228e-25)
(30.049376 -0.014307942 4.6475392e-25)
(30.051393 -0.013786951 3.2034564e-25)
(30.053267 -0.013175406 0)
(30.05498 -0.012484116 -1.3755926e-25)
(30.05652 -0.011725872 1.375566e-25)
(30.057876 -0.010914961 6.5125763e-25)
(30.059043 -0.010066601 0)
(30.060019 -0.009196329 -1.7522833e-25)
(30.060805 -0.0083194026 -1.7651464e-24)
(30.061408 -0.0074502426 3.3259455e-26)
(30.061835 -0.0066019588 0)
(30.062098 -0.0057859847 3.0766013e-26)
(30.062209 -0.0050118333 -5.7975636e-26)
(30.062184 -0.0042869777 -1.046961e-24)
(30.062037 -0.0036168412 2.1104734e-25)
(30.061785 -0.003004888 -8.1905301e-25)
(30.061443 -0.0024527906 0)
(30.061025 -0.0019606429 1.6068047e-24)
(30.060546 -0.0015272113 -7.6423189e-25)
(30.06002 -0.0011501901 -2.2489353e-24)
(30.059457 -0.00082645432 -7.1535863e-25)
(30.058869 -0.00055229682 -6.8883248e-25)
(30.058265 -0.00032363505 0)
(30.057653 -0.00013619762 6.4019597e-25)
(30.057039 1.432744e-05 1.2167547e-24)
(30.05643 0.00013217582 0)
(30.05583 0.00022141248 5.5354929e-25)
(30.055242 0.00028586926 0)
(30.054669 0.00032909926 0)
(30.054115 0.0003543533 -2.3634415e-25)
(30.053579 0.00036456789 2.2369847e-25)
(30.053064 0.0003623686 1.4450928e-28)
(30.052569 0.00035007725 -2.0011436e-25)
(30.052096 0.00032972876 1.8950148e-25)
(30.051643 0.00030309077 -1.7848123e-25)
(30.051211 0.00027168596 1.69049e-25)
(30.0508 0.00023681404 -1.5881886e-25)
(30.050408 0.00019957654 0)
(30.050034 0.00016089722 -1.4101286e-25)
(30.049679 0.00012154541 0)
(30.049341 8.2153889e-05 0)
(30.04902 4.3238068e-05 0)
(30.048714 5.2120378e-06 1.110755e-25)
(30.048422 -3.1596786e-05 -1.0360362e-25)
(30.048145 -6.6934312e-05 0)
(30.04788 -0.00010060899 0)
(30.047627 -0.00013248094 0)
(30.047386 -0.00016245339 0)
(30.047155 -0.00019046488 0)
(30.046934 -0.00021648294 0)
(30.046722 -0.00024049837 0)
(30.046518 -0.00026252042 0)
(30.046322 -0.00028257293 0)
(30.046133 -0.00030069111 0)
(30.045951 -0.00031691905 0)
(30.045775 -0.00033130787 0)
(30.045604 -0.00034391458 0)
(30.045439 -0.00035480144 0)
(30.045278 -0.0003640361 0)
(30.045121 -0.00037169232 0)
(30.044968 -0.00037785153 0)
(30.044818 -0.00038260501 0)
(30.044671 -0.00038605725 0)
(30.044526 -0.00038832705 0)
(30.044387 -0.00038956058 0)
(30.044238 -0.00038988493 0)
(30.044128 -0.00038962626 0)
(30.043912 -0.00038850829 0)
(30.00001 -0.00031408142 0)
(30.000099 -0.00094370841 0)
(30.000288 -0.0015781788 0)
(30.00058 -0.0022208801 -1.0224411e-24)
(30.000969 -0.0028742482 0)
(30.001453 -0.0035400042 -1.0023614e-24)
(30.002036 -0.0042195044 9.7574173e-25)
(30.002718 -0.0049137358 -9.59762e-25)
(30.003502 -0.0056231924 0)
(30.00439 -0.0063478161 0)
(30.005383 -0.0070869627 -8.9753377e-25)
(30.006484 -0.0078393446 3.0844468e-24)
(30.007696 -0.008602942 -1.2847419e-24)
(30.009019 -0.0093749241 1.224301e-24)
(30.010455 -0.010151571 1.6066022e-24)
(30.012007 -0.010928208 3.8432101e-25)
(30.013673 -0.011699152 0)
(30.015454 -0.012457674 -1.328115e-24)
(30.017347 -0.013195997 0)
(30.019351 -0.013905331 -8.7053039e-25)
(30.021459 -0.014575946 1.3192397e-24)
(30.023665 -0.015197309 -1.440392e-24)
(30.025961 -0.015758276 4.4025026e-25)
(30.028336 -0.016247355 -7.4338884e-25)
(30.030776 -0.016653028 2.8706513e-24)
(30.033266 -0.016964144 -8.1374073e-25)
(30.035788 -0.017170363 -1.0207439e-24)
(30.038321 -0.01726264 1.1125248e-25)
(30.040843 -0.017233716 -1.1124321e-25)
(30.043331 -0.017078606 -1.9436501e-25)
(30.04576 -0.016795024 0)
(30.048105 -0.016383729 0)
(30.050341 -0.015848738 3.1162307e-25)
(30.052445 -0.015197393 -2.0976511e-25)
(30.054396 -0.014440233 4.5029449e-25)
(30.056176 -0.013590709 0)
(30.057769 -0.012664694 0)
(30.059165 -0.011679867 -6.8676859e-25)
(30.060357 -0.010654992 1.9097826e-25)
(30.061344 -0.0096091324 -1.9098029e-25)
(30.062128 -0.0085608981 1.6476446e-24)
(30.062715 -0.007527738 -8.3111695e-25)
(30.063115 -0.0065253575 0)
(30.063341 -0.0055672748 -8.6135085e-25)
(30.063407 -0.0046645412 1.7306796e-24)
(30.063332 -0.0038256191 0)
(30.063131 -0.0030564049 1.7659019e-24)
(30.062822 -0.0023603735 0)
(30.062422 -0.0017388134 0)
(30.061947 -0.0011911202 -1.6067795e-24)
(30.061414 -0.00071512382 1.5937061e-24)
(30.060835 -0.00030741854 1.3214155e-24)
(30.060224 3.631502e-05 3.6648292e-25)
(30.05959 0.00032102271 1.237138e-24)
(30.058945 0.00055201705 1.3547973e-24)
(30.058296 0.00073476231 -6.4017188e-25)
(30.057649 0.00087469817 -6.1092339e-25)
(30.05701 0.00097710271 5.8526175e-25)
(30.056384 0.0010469879 2.1287534e-27)
(30.055775 0.0010890338 0)
(30.055183 0.0011075413 0)
(30.054613 0.0011064122 2.3633569e-25)
(30.054064 0.0010891415 0)
(30.053538 0.0010588285 6.8818526e-28)
(30.053035 0.001018192 5.9859802e-25)
(30.052554 0.00096959469 -1.8804526e-25)
(30.052096 0.00091507081 1.7847576e-25)
(30.05166 0.00085635643 0)
(30.051246 0.00079491781 1.1969183e-27)
(30.050852 0.0007319842 -1.4847323e-25)
(30.050477 0.00066857295 1.4100907e-25)
(30.050122 0.0006055187 0)
(30.049784 0.00054349583 0)
(30.049463 0.00048304159 0)
(30.049158 0.0004245759 0)
(30.048868 0.00036841858 1.0360141e-25)
(30.048592 0.00031480635 -9.6168601e-26)
(30.048329 0.00026390515 0)
(30.048078 0.00021582311 0)
(30.047838 0.00017062078 0)
(30.047609 0.0001283201 0)
(30.04739 8.8912396e-05 0)
(30.04718 5.2364886e-05 0)
(30.046978 1.8626167e-05 0)
(30.046784 -1.2369169e-05 0)
(30.046597 -4.0697036e-05 0)
(30.046417 -6.6440737e-05 0)
(30.046243 -8.9688939e-05 0)
(30.046074 -0.00011053423 0)
(30.04591 -0.0001290724 0)
(30.045751 -0.00014540223 0)
(30.045595 -0.00015962615 0)
(30.045444 -0.0001718506 0)
(30.045295 -0.0001821895 0)
(30.04515 -0.00019075944 0)
(30.045006 -0.00019770231 0)
(30.044868 -0.00020311788 0)
(30.04472 -0.00020727894 0)
(30.04461 -0.00020991259 0)
(30.044402 -0.00021227662 0)
(30.00001 -0.00035385095 0)
(30.000096 -0.001063012 0)
(30.00028 -0.0017770037 -5.1620601e-25)
(30.000564 -0.0024993611 1.5386173e-24)
(30.000943 -0.0032328519 0)
(30.001416 -0.0039795779 1.0023442e-24)
(30.001986 -0.0047412559 1.0038135e-24)
(30.002655 -0.00551922 0)
(30.003426 -0.0063142888 0)
(30.0043 -0.0071266717 0)
(30.005281 -0.0079559058 -4.5346244e-25)
(30.006371 -0.0088007828 4.8629638e-25)
(30.007573 -0.0096592539 1.7170093e-24)
(30.008889 -0.010528327 1.6894711e-24)
(30.010323 -0.011403979 2.0492325e-24)
(30.011875 -0.012281064 -3.9228939e-25)
(30.013549 -0.013153245 0)
(30.015343 -0.014012946 0)
(30.017257 -0.014851332 0)
(30.019289 -0.015658332 1.8410823e-24)
(30.021435 -0.016422723 5.6983996e-25)
(30.023689 -0.017132266 3.4791237e-24)
(30.026042 -0.017773923 -1.2651293e-24)
(30.028485 -0.018334158 1.8991965e-24)
(30.031003 -0.018799315 -1.6295115e-24)
(30.033581 -0.019156077 1.0421493e-24)
(30.0362 -0.019392012 1.6338425e-24)
(30.038837 -0.019496149 0)
(30.04147 -0.0194596 -1.0046102e-25)
(30.044071 -0.019276162 1.8912594e-25)
(30.046614 -0.018942863 -6.7429335e-26)
(30.049071 -0.01846041 1.9052659e-25)
(30.051414 -0.017833469 -1.1554934e-24)
(30.053617 -0.017070765 -1.7581942e-25)
(30.055655 -0.016184947 -5.1066906e-25)
(30.057509 -0.015192219 2.7015332e-25)
(30.059162 -0.014111751 0)
(30.0606 -0.012964886 1.6439566e-25)
(30.061818 -0.011774234 1.8869934e-25)
(30.062814 -0.010562688 0)
(30.06359 -0.0093524692 9.3687015e-25)
(30.064154 -0.0081642543 1.8314612e-24)
(30.064519 -0.0070164642 1.8628415e-24)
(30.064698 -0.0059247367 0)
(30.064711 -0.0049016139 0)
(30.064574 -0.0039564306 -1.8576054e-24)
(30.064308 -0.0030953875 -1.7658468e-24)
(30.063933 -0.002321769 0)
(30.063467 -0.0016362704 0)
(30.062928 -0.0010373863 1.6891495e-24)
(30.062332 -0.00052183052 -1.5936862e-24)
(30.061696 -8.4949518e-05 1.5679374e-24)
(30.061031 0.000278881 1.5031867e-24)
(30.060349 0.00057590386 1.9471358e-25)
(30.05966 0.00081267989 -1.3627266e-24)
(30.058972 0.00099583851 -1.6624504e-25)
(30.058291 0.0011318808 0)
(30.057624 0.0012270312 -5.8523629e-25)
(30.056973 0.0012871308 -5.5563325e-25)
(30.056342 0.0013175699 0)
(30.055734 0.0013232489 4.9886492e-25)
(30.05515 0.0013085663 4.7137957e-25)
(30.05459 0.0012774215 4.4511072e-25)
(30.054055 0.0012332364 2.1098698e-25)
(30.053546 0.0011789803 -2.2427101e-27)
(30.053061 0.0011172064 5.6162987e-25)
(30.0526 0.001050089 1.7605125e-25)
(30.052162 0.0009794605 0)
(30.051747 0.00090685133 1.5761271e-25)
(30.051353 0.00083352479 1.4846874e-25)
(30.05098 0.00076051224 0)
(30.050626 0.00068864459 0)
(30.05029 0.00061857937 0)
(30.049972 0.00055082821 0)
(30.049669 0.00048577793 0)
(30.049382 0.00042371139 0)
(30.049108 0.00036482492 9.616609e-26)
(30.048848 0.00030924319 0)
(30.0486 0.0002570334 0)
(30.048363 0.00020821557 0)
(30.048137 0.0001627731 0)
(30.047921 0.00012066078 0)
(30.047713 8.1811811e-05 0)
(30.047514 4.6143561e-05 0)
(30.047323 1.3562258e-05 0)
(30.047138 -1.6033126e-05 0)
(30.04696 -4.2748238e-05 0)
(30.046788 -6.6691214e-05 0)
(30.046621 -8.7971308e-05 0)
(30.046459 -0.00010669818 0)
(30.046302 -0.00012298172 0)
(30.046148 -0.00013693241 0)
(30.045998 -0.00014866184 0)
(30.045851 -0.00015828456 0)
(30.045707 -0.00016591602 0)
(30.045565 -0.00017168092 0)
(30.045427 -0.0001756918 0)
(30.045281 -0.00017809226 0)
(30.045172 -0.00017900994 0)
(30.044961 -0.00017859805 0)
(30.00001 -0.00039241076 0)
(30.000093 -0.0011787532 0)
(30.000271 -0.0019701307 1.0583495e-24)
(30.000547 -0.0027703173 0)
(30.000915 -0.0035824288 0)
(30.001377 -0.0044089544 1.0329653e-24)
(30.001933 -0.0052519706 -1.0037948e-24)
(30.002588 -0.0061131281 -2.0104298e-24)
(30.003343 -0.0069935178 0)
(30.004202 -0.0078935612 0)
(30.005169 -0.0088129345 0)
(30.006245 -0.0097504789 3.6486583e-26)
(30.007436 -0.010704093 0)
(30.008745 -0.011670613 1.764344e-24)
(30.010175 -0.012645697 -3.2459964e-24)
(30.01173 -0.013623718 -2.7948236e-24)
(30.01341 -0.01459767 -3.8243268e-25)
(30.01522 -0.015559095 0)
(30.017157 -0.016498044 0)
(30.019222 -0.017403083 -1.8254532e-24)
(30.021411 -0.018261369 -5.8529409e-25)
(30.02372 -0.019058791 -6.1122933e-24)
(30.026141 -0.019780203 -3.6583558e-24)
(30.028662 -0.020409757 -1.5467001e-24)
(30.031272 -0.020931342 6.0054148e-25)
(30.033953 -0.021329125 1.5804374e-24)
(30.036686 -0.021588194 -1.2860465e-24)
(30.039446 -0.021695267 -3.4758208e-25)
(30.042208 -0.021639461 0)
(30.044944 -0.02141304 0)
(30.047622 -0.021012113 5.5566606e-26)
(30.050212 -0.020437217 -1.1738589e-25)
(30.052681 -0.019693696 5.1983853e-25)
(30.055001 -0.018791856 8.1275855e-25)
(30.057144 -0.017746814 7.5684522e-25)
(30.059086 -0.016578057 2.9126903e-25)
(30.060807 -0.015308703 0)
(30.062295 -0.013964518 0)
(30.063541 -0.012572755 0)
(30.064545 -0.011160928 0)
(30.065309 -0.0097556017 1.0773082e-25)
(30.065844 -0.0083813165 -1.8313256e-24)
(30.066163 -0.0070597105 -1.8627186e-24)
(30.066286 -0.0058089008 3.9397422e-24)
(30.06623 -0.0046431343 0)
(30.06602 -0.0035727007 5.7301796e-24)
(30.065675 -0.0026040748 0)
(30.06522 -0.0017402316 -3.7053956e-24)
(30.064675 -0.00098109062 3.5949892e-24)
(30.064059 -0.00032402369 -5.1610625e-24)
(30.06339 0.00023561026 0)
(30.062685 0.00070394898 -1.567851e-24)
(30.061957 0.0010881572 -1.5031004e-24)
(30.061218 0.0013960014 -1.4370979e-24)
(30.060478 0.0016355013 1.3867702e-24)
(30.059745 0.0018146431 1.3164637e-24)
(30.059025 0.0019411621 0)
(30.058323 0.0020223844 0)
(30.057643 0.0020651168 0)
(30.056988 0.0020755847 -1.0547466e-24)
(30.056359 0.0020593997 -1.0660691e-27)
(30.055758 0.0020215573 -4.7136055e-25)
(30.055185 0.0019664521 -2.3956843e-27)
(30.05464 0.0018979128 4.1720563e-25)
(30.054122 0.0018192366 -3.962196e-25)
(30.053631 0.0017332385 -3.4090396e-27)
(30.053165 0.001642298 8.7359035e-26)
(30.052725 0.0015484059 2.4916919e-25)
(30.052308 0.0014532113 0)
(30.051914 0.0013580635 0)