/*--------------------------------*- C++ -*----------------------------------*\
| =========                 |                                                 |
| \\      /  F ield         | OpenFOAM: The Open Source CFD Toolbox           |
|  \\    /   O peration     | Version:  2406                                  |
|   \\  /    A nd           | Website:  www.openfoam.com                      |
|    \\/     M anipulation  |                                                 |
\*---------------------------------------------------------------------------*/
FoamFile
{
    version     2.0;
    format      ascii;
    arch        "LSB;label=32;scalar=64";
    class       volScalarField;
    location    "300";
    object      k;
}
// * * * * * * * * * * * * * * * * * * * * * * * * * * * * * * * * * * * * * //

dimensions      [0 2 -2 0 0 0 0];

internalField   nonuniform List<scalar> 
16045
(
0.054776142
0.047088836
0.041216852
0.0365929
0.032867871
0.02980185
0.027244015
0.025069883
0.023214347
0.021594503
0.02019419
0.01894025
0.017852434
0.016850875
0.015988021
0.015166665
0.014470448
0.013784806
0.013210243
0.012636095
0.012145691
0.011669848
0.011235697
0.010845663
0.010454276
0.01013021
0.0097834261
0.0095001511
0.0092050299
0.0089433196
0.0087005745
0.0084534755
0.0082526161
0.0080271841
0.0078513058
0.0076503297
0.0075010452
0.0073095395
0.0071912078
0.0070121621
0.0069091375
0.0067447006
0.0066587711
0.0065036265
0.0064099013
0.0062266181
0.006227361
0.0083140982
0.0097518411
0.017031936
0.041301264
0.091207893
0.15939547
0.25649667
0.37992672
0.53141686
0.72810586
0.97856239
1.2799717
1.6622905
2.1267139
2.6742204
3.2732046
4.0303071
4.8369159
5.672874
6.5734197
7.6994744
8.8779229
10.033408
11.735449
14.427479
17.130773
19.490215
25.731708
54.213148
139.60405
257.26079
295.28653
273.82729
223.53848
178.46996
145.73201
123.62192
108.55306
97.706607
89.299451
82.33367
76.281859
70.885537
65.998819
61.546843
57.496635
53.782122
50.427284
47.247635
44.558039
41.599218
39.869428
36.442368
0.054776745
0.047088
0.041216644
0.0365927
0.032866114
0.029802587
0.027240608
0.025071415
0.023209631
0.021596408
0.020188711
0.01894203
0.017846765
0.016851975
0.015982985
0.015166101
0.014467263
0.013781648
0.01320945
0.012630453
0.012147019
0.011661733
0.011239651
0.010834169
0.010461381
0.010116135
0.0097905796
0.009488893
0.0092054987
0.0089396124
0.0086941075
0.0084500677
0.0082507966
0.0080142269
0.0078544935
0.0076367601
0.0074953357
0.0073067051
0.0071707401
0.0070208508
0.0068800372
0.0067476285
0.0066437802
0.0064861673
0.0064104914
0.0062071988
0.0061791133
0.0088844008
0.015330895
0.024798909
0.04754956
0.089847907
0.15356937
0.23930288
0.35704544
0.51384706
0.69692829
0.92906063
1.2320175
1.6201431
2.0776506
2.6176521
3.268327
4.0437713
4.8274587
5.5903569
6.4637375
7.6653813
8.9539204
10.273792
12.23489
15.413823
18.785454
21.894907
28.89704
58.660193
139.0016
242.30118
293.30362
287.19703
242.80476
193.06564
153.61853
127.37166
110.27952
98.670153
90.023539
82.978751
76.889635
71.458114
66.532031
62.042297
57.952815
54.198575
50.807912
47.593402
44.874354
41.899011
40.101298
37.261058
0.054778146
0.047086164
0.041218177
0.036590867
0.032867028
0.02980177
0.027239724
0.025072814
0.023205955
0.021600565
0.020182304
0.018948182
0.017838827
0.016858632
0.015974842
0.015171957
0.014460037
0.013785322
0.013204387
0.012630814
0.012144306
0.011659399
0.011237898
0.010830486
0.010459164
0.010112236
0.0097865963
0.0094856325
0.0091991353
0.0089365742
0.0086867047
0.0084454862
0.0082428373
0.0080074885
0.0078467877
0.0076270437
0.007486209
0.0072982349
0.007155223
0.0070146007
0.0068591337
0.0067400352
0.0066239799
0.0064700646
0.006390141
0.0061950943
0.00618822
0.0070707887
0.0081610607
0.014424513
0.033676328
0.073485986
0.13008366
0.20773526
0.31750898
0.48348521
0.68342355
0.94571006
1.2896427
1.7201355
2.214391
2.7529075
3.3663615
4.0498266
4.7246018
5.4651839
6.3895513
7.6346117
9.0324134
10.500864
12.66476
16.255139
20.131971
23.571049
31.076699
60.659307
135.79152
229.3642
289.6471
295.81492
269.62276
220.85668
172.44172
136.94261
114.64381
100.71196
91.143826
83.779878
77.560496
72.079057
67.136296
62.587745
58.468055
54.680686
51.252737
48.009173
45.240774
42.35565
40.321663
37.956708
0.054776064
0.047088615
0.041216133
0.036592366
0.032865316
0.029802803
0.0272371
0.025075483
0.023200145
0.02160705
0.020171918
0.018958908
0.017824494
0.016872212
0.015958351
0.015186457
0.014443483
0.013798249
0.01319059
0.012639455
0.012135433
0.011662747
0.011233769
0.010829887
0.010457643
0.010110299
0.0097850166
0.0094843148
0.0091969291
0.0089353435
0.0086827075
0.0084492412
0.0082288851
0.00802292
0.0078236255
0.0076450569
0.0074667823
0.0073075339
0.0071429848
0.0070191216
0.0068456827
0.0067518876
0.0065928917
0.0064956702
0.0063465125
0.0062653513
0.0060524338
0.0062957856
0.0070614009
0.010668675
0.022515608
0.056368628
0.11344848
0.19266531
0.30097553
0.46242337
0.66675984
0.92887533
1.2717269
1.6877893
2.1664544
2.7036603
3.2440754
3.8019893
4.5045012
5.3550744
6.3615024
7.7200051
9.3221842
11.081884
13.560839
17.588722
22.189286
26.191482
33.962284
63.129322
134.32201
224.37724
290.02418
303.92913
290.97166
248.54285
197.18789
151.94287
121.6885
103.56454
92.316256
84.327522
77.975857
72.423769
67.387676
63.01058
58.787004
54.964594
51.510591
48.286487
45.476568
42.656262
40.554997
38.332648
0.054775908
0.047088703
0.041216421
0.036591392
0.032866483
0.029800492
0.027239191
0.025072178
0.023202621
0.021603572
0.020173952
0.018956036
0.017825493
0.016870288
0.015958214
0.01518523
0.01444286
0.013796648
0.01319107
0.012635208
0.012139038
0.011654527
0.011239763
0.010820216
0.01046238
0.010102188
0.0097864619
0.0094792415
0.0091931891
0.0089358082
0.0086715827
0.0084541357
0.0082149009
0.0080259019
0.0078083438
0.0076485214
0.007450039
0.007303601
0.007137782
0.0070018658
0.0068410746
0.0067446623
0.0065785416
0.0064817819
0.0063169119
0.0062484533
0.0060690879
0.0064155809
0.0093972036
0.022441307
0.05664499
0.10528376
0.18089212
0.27757087
0.39800908
0.5666337
0.77239643
1.0007307
1.2953997
1.6467503
2.0508223
2.4381494
2.87325
3.4823187
4.3114454
5.314341
6.5083091
8.0623081
9.9684151
12.143421
15.038706
19.541802
24.907399
29.595491
37.698404
66.184326
133.91526
223.16535
289.68943
315.04072
309.47484
275.81618
225.50272
173.09105
133.05524
108.48756
94.193312
85.085812
78.710033
72.935196
67.61945
63.727708
59.126031
55.22024
51.73479
48.556701
45.744355
42.92911
40.848036
38.633249
0.054776
0.04708869
0.041215666
0.036592647
0.032864386
0.029802935
0.027236306
0.025074499
0.023200496
0.021604078
0.02017379
0.01895405
0.017827312
0.016866257
0.015961152
0.015180279
0.01444556
0.013791914
0.013192978
0.012630261
0.012141855
0.011647469
0.011245191
0.010810498
0.010469481
0.010092459
0.0097917477
0.0094719235
0.0091943498
0.0089327922
0.0086668035
0.0084564889
0.0082050603
0.0080311032
0.0077995023
0.0076494693
0.0074437727
0.0073063926
0.0071253353
0.0070071634
0.006833664
0.0067383357
0.0065732797
0.0064899027
0.0063257282
0.0062556376
0.0060433233
0.0067588712
0.0078670655
0.014200877
0.031926732
0.062404322
0.10847364
0.17135792
0.26697343
0.39848652
0.54784594
0.74034156
0.99389633
1.2658545
1.5496356
1.9518919
2.5351373
3.2996257
4.3098983
5.5261158
6.9704785
8.7735534
11.032889
13.676973
17.040274
22.009197
28.134674
33.708827
42.141421
68.562393
132.86007
222.03721
292.37726
326.1274
326.09335
301.97835
255.11925
200.29364
150.34213
116.87141
97.600045
86.474876
79.434766
73.908459
68.111645
63.849332
59.400747
55.444318
51.969462
48.804035
46.03956
43.274353
40.990075
38.809754
0.054775593
0.047089392
0.041214397
0.036594251
0.032861981
0.029805231
0.02723343
0.025076117
0.023199115
0.02160264
0.020176307
0.018947788
0.017834296
0.016856255
0.015969785
0.015170752
0.014450908
0.013787534
0.013191384
0.012632775
0.012133347
0.011654133
0.011234416
0.010815546
0.010461696
0.010091664
0.0097899625
0.0094639776
0.0091996619
0.0089166033
0.0086793545
0.0084346056
0.0082185829
0.0080106585
0.0078087369
0.0076308643
0.0074538088
0.0072808119
0.0071415087
0.0069801693
0.0068417923
0.0067268696
0.0065717347
0.0064830891
0.0063410014
0.0062516621
0.0061081814
0.0060229274
0.0058805256
0.0057092349
0.0064207878
0.014746052
0.035499233
0.062104122
0.11122463
0.19036319
0.279714
0.43864203
0.6055856
0.83346329
1.2032846
1.7318935
2.454557
3.4245221
4.6438772
6.1074281
7.8250907
9.91998
12.537056
15.67212
19.557165
24.964767
31.781501
38.456411
47.226235
70.535447
130.16156
218.10014
293.29886
335.8621
341.47988
325.88135
284.54424
230.59867
174.12508
130.12089
103.62554
88.955134
80.655515
75.217591
69.057472
64.683132
59.800907
55.732873
52.216098
49.066168
46.338401
43.622738
41.323152
39.255957
0.054774801
0.047090203
0.041213797
0.036593935
0.03286318
0.029802002
0.027238134
0.025068916
0.023207356
0.021592712
0.020185655
0.018938204
0.017841652
0.016849408
0.015973609
0.015167467
0.014450227
0.013789349
0.013184017
0.012641972
0.012118407
0.01166978
0.01121458
0.010833625
0.010441538
0.010107078
0.0097732664
0.0094742191
0.0091874703
0.0089215098
0.0086721622
0.0084322601
0.0082181902
0.0080010296
0.0078072869
0.0076296835
0.0074356298
0.007295585
0.0071135593
0.0069928246
0.0068248793
0.0067234978
0.0065678018
0.0064640217
0.0063503871
0.0062073062
0.0061198639
0.005993424
0.0058447352
0.0056769069
0.0056691076
0.0083716007
0.015977256
0.017716899
0.02292212
0.07832168
0.14961029
0.21715666
0.37262703
0.64901203
1.0840618
1.7794244
2.712017
3.9005399
5.3565364
7.0605631
9.0445397
11.449415
14.413609
18.032821
22.476077
28.343552
35.739058
43.475561
52.682239
73.43808
126.53969
211.07625
290.74085
339.93127
354.88214
346.37655
312.44288
261.57863
203.37455
149.37836
113.25849
93.230965
82.498048
76.046152
69.853908
64.7417
60.027771
56.156756
52.572204
49.476964
46.673659
44.029187
41.672375
39.37972
0.054776639
0.047087893
0.04121597
0.03659115
0.032865827
0.029798392
0.027241419
0.025064552
0.023210744
0.021588592
0.020187901
0.018935553
0.017841994
0.016848141
0.015973116
0.015165578
0.014451326
0.01378495
0.013187144
0.012636206
0.012120159
0.011666975
0.011211693
0.010834239
0.010436583
0.010108602
0.0097675087
0.0094756376
0.0091823325
0.008920045
0.0086701919
0.0084276675
0.0082200074
0.0079918577
0.0078162137
0.0076142698
0.0074457657
0.0072872846
0.0071104967
0.0069940334
0.0068171129
0.0067226073
0.0065594092
0.0064708038
0.0063336094
0.0062100481
0.0061383658
0.0059396244
0.0059966377
0.0059191247
0.0059083433
0.0061485385
0.010338842
0.019243957
0.02231257
0.03329889
0.1015943
0.17966654
0.26351441
0.56475968
1.2403892
2.1629088
3.3389703
4.7625677
6.4206935
8.3165008
10.541361
13.235034
16.545523
20.64282
25.666277
32.056908
39.976106
48.723838
58.64217
77.679459
123.33705
201.42412
283.23299
340.90014
364.82715
361.96449
337.37348
291.39936
234.31483
174.30658
127.31055
99.582214
85.386589
77.226901
71.532718
66.57714
60.838198
56.725199
53.282459
50.095024
47.151827
44.496584
42.410839
39.877833
0.05477778
0.047086638
0.041215754
0.036592268
0.032862713
0.029802749
0.027235311
0.025071187
0.023203392
0.021595363
0.020181083
0.018941489
0.01783563
0.016853758
0.015966926
0.015169963
0.014447356
0.013785318
0.013187612
0.012632167
0.012123849
0.011660418
0.011216195
0.010828066
0.010437741
0.010106266
0.0097640887
0.0094763118
0.0091758506
0.008924325
0.0086569418
0.0084383441
0.0081989094
0.0080062787
0.0077941966
0.007621241
0.007434496
0.0072817611
0.0071053446
0.0069882504
0.006809585
0.0067154764
0.0065599865
0.0064560296
0.0063428524
0.0062062729
0.0061269907
0.0060023033
0.0058750169
0.0058043162
0.0057107069
0.0055294164
0.0054915239
0.0060829136
0.021339032
0.048552582
0.066000112
0.14074981
0.47560168
1.1227441
1.983569
3.0592842
4.368666
5.9034561
7.6584861
9.6858281
12.118871
15.09022
18.769418
23.358098
28.983882
35.951199
44.41149
54.021779
64.855122
82.618035
120.90882
189.81178
270.73185
335.50023
369.9219
373.12074
357.52327
318.24
264.55682
203.26235
146.60915
109.23138
88.997229
78.46777
71.922394
66.862852
61.088164
57.377622
53.900992
50.441365
47.711525
45.119575
42.533798
40.020577
0.054778263
0.047086099
0.041216378
0.036591745
0.03286294
0.02980248
0.027235093
0.02507064
0.023203692
0.021593451
0.020182764
0.018938114
0.017837783
0.016851024
0.015966754
0.015170526
0.014443156
0.013789004
0.013181482
0.012635178
0.012120011
0.011659196
0.011216873
0.010822223
0.01044201
0.010097656
0.0097686047
0.0094702453
0.0091743594
0.0089254794
0.0086488175
0.0084444601
0.0081881907
0.0080131113
0.007782588
0.0076306765
0.0074194333
0.0072913394
0.0070976406
0.0069864844
0.0068123112
0.0067122417
0.0065574979
0.0064615141
0.006331129
0.0062328245
0.0061292552
0.0060136365
0.005923864
0.0058499236
0.0056442607
0.0056206581
0.0066192409
0.022381179
0.065213321
0.1158288
0.19778086
0.47497727
1.0150058
1.7370021
2.6826764
3.8375503
5.2387218
6.8625599
8.7202427
10.908962
13.571383
16.857933
20.951755
26.059032
32.30609
39.889966
48.934865
59.26475
70.790438
87.26903
119.44818
177.83912
254.99174
324.0709
367.52073
379.81363
371.77175
340.94411
292.40193
232.44862
170.33964
122.33677
94.41278
80.324246
72.003326
66.765246
61.758506
57.488066
54.62553
50.835475
47.975512
45.469074
42.889218
40.491139
0.054778008
0.047086082
0.041217291
0.036590561
0.032864541
0.029800881
0.027236089
0.02507026
0.023202598
0.021595244
0.020179454
0.018941507
0.017833144
0.016854643
0.015962105
0.015173132
0.014439401
0.013789954
0.013178808
0.012634553
0.012118041
0.011657994
0.01121361
0.010822699
0.010436425
0.010099487
0.0097623952
0.0094699116
0.009171793
0.0089197671
0.008649148
0.0084377173
0.0081859671
0.008008078
0.007778991
0.0076237061
0.0074165191
0.007284475
0.0070932856
0.0069808264
0.0068119192
0.0067036111
0.0065694511
0.0064473132
0.0063493897
0.0062340076
0.0061233239
0.0060346214
0.0059211692
0.0057979932
0.0056367452
0.0056479725
0.01069864
0.041968904
0.058054741
0.10720714
0.26178438
0.64084544
1.2150883
1.9814971
2.9932207
4.2263148
5.7424016
7.5081938
9.5321266
11.930075
14.856979
18.491997
23.024672
28.657912
35.522028
43.743265
53.405141
64.385724
76.468262
91.977774
119.29083
168.51727
238.22767
308.48255
360.40299
381.87179
379.52491
358.37729
316.23989
260.15358
195.74372
138.60327
102.53112
84.888096
73.112819
67.374837
61.592144
57.753908
54.750178
51.332527
48.618059
45.698983
43.018743
40.480314
0.054776513
0.047087753
0.041217054
0.036589787
0.032866515
0.029797625
0.027239388
0.025066384
0.023204827
0.021593355
0.020178704
0.01894219
0.017830428
0.016856088
0.015959321
0.015173816
0.014437828
0.013788511
0.013180002
0.012629485
0.012122521
0.011650338
0.011218613
0.010816146
0.010437521
0.010097635
0.0097590435
0.0094700062
0.0091682173
0.0089178762
0.0086481239
0.0084330578
0.0081865037
0.0080036262
0.0077792359
0.0076203608
0.007416458
0.0072814284
0.0070926216
0.0069769772
0.0068130971
0.0066940817
0.0065709967
0.0064359838
0.0063484376
0.0062051979
0.0061197938
0.0059876628
0.0057814874
0.005869784
0.0059834407
0.0076930619
0.028729423
0.071114802
0.090887894
0.21996456
0.48249068
0.93087284
1.5605499
2.4027016
3.4939476
4.7729702
6.2988045
8.1342412
10.296956
12.859295
16.02504
19.992315
24.948165
31.078304
38.54001
47.391696
57.6847
69.250017
81.777739
96.663668
120.20059
161.66989
222.66558
290.80879
347.26567
378.75997
382.03889
369.55125
334.97468
284.46406
221.85891
157.7092
112.70343
88.897208
75.884245
68.022978
62.185313
58.430907
55.414998
52.102491
48.827455
45.746529
43.154589
40.377939
0.054775648
0.047088757
0.041216016
0.036590507
0.032866011
0.029797312
0.02723996
0.025064967
0.023206196
0.021591273
0.020180422
0.018939687
0.017832359
0.016853003
0.015961484
0.015170554
0.014438858
0.013786896
0.013178579
0.012629215
0.01212074
0.011648429
0.011219279
0.010811055
0.010440602
0.010091298
0.009760745
0.0094676899
0.0091650841
0.0089193959
0.0086431668
0.0084342056
0.0081821863
0.0080044394
0.0077732796
0.0076216937
0.0074115513
0.0072810334
0.0070892098
0.0069760637
0.0068097871
0.0066911006
0.0065749509
0.0064256818
0.0063479684
0.0061915964
0.006110699
0.0059631072
0.0058061758
0.0069781996
0.0070401259
0.015144666
0.024519725
0.054685673
0.081499788
0.21321834
0.46887005
0.91233118
1.5291136
2.3578084
3.497079
4.8373852
6.4471196
8.3764116
10.694922
13.501401
16.971197
21.290378
26.653464
33.238834
41.27563
50.739748
61.663857
73.746571
86.618603
101.04391
121.7794
156.80464
210.04735
273.26232
330.85362
369.16784
380.46993
374.2893
348.54698
304.28805
245.61789
177.51866
126.36039
94.641069
76.646727
68.127436
62.319953
58.735235
55.584478
52.306392
49.748933
46.836528
44.039318
40.980129
0.054775642
0.047089026
0.041215244
0.036591478
0.032864441
0.029798392
0.027238617
0.025064614
0.023206728
0.021588094
0.020183678
0.018933511
0.017837896
0.016844786
0.01596795
0.015161853
0.014444768
0.013778657
0.013183554
0.01262103
0.012125747
0.011638746
0.011225655
0.010799054
0.010447608
0.010078162
0.0097668531
0.0094551059
0.0091671173
0.0089124559
0.0086382298
0.0084313668
0.0081760996
0.0080010333
0.0077678302
0.0076186301
0.0074043307
0.0072769142
0.0070828625
0.0069716035
0.0067979952
0.0066940457
0.0065529691
0.0064250726
0.0063447899
0.006176408
0.0060901753
0.0059394599
0.0057914428
0.0069827246
0.0072021041
0.017925323
0.02503543
0.088915079
0.18350676
0.35757381
0.62726476
1.1064765
1.8478182
2.7843439
3.9528036
5.3524666
7.0525768
9.0274203
11.422054
14.351041
17.968306
22.502301
28.15549
35.128215
43.700744
53.772255
65.30148
77.845293
90.949265
104.93242
123.62751
153.3329
199.59785
257.68995
314.3167
356.52229
375.38001
373.50356
356.38133
319.00902
265.79316
198.34349
137.67938
102.78734
79.613045
68.839823
63.757841
59.100883
55.933933
52.440681
49.834531
46.902366
44.173295
41.198937
0.05477527
0.047089259
0.041214948
0.036591563
0.03286403
0.029798316
0.027238389
0.025063743
0.023207699
0.021585447
0.02018645
0.018929248
0.017841329
0.016840482
0.015970297
0.015158537
0.014445616
0.013775999
0.0131837
0.012618257
0.012125977
0.011634993
0.011227217
0.010793693
0.010451038
0.010070214
0.0097741441
0.0094413066
0.009181158
0.0088900657
0.0086566833
0.0084077479
0.008187035
0.0079867267
0.0077668739
0.0076123212
0.0073976746
0.0072714568
0.0070761279
0.006964769
0.0067900916
0.0066937502
0.006534241
0.0064422551
0.0063180669
0.0061846646
0.0061119732
0.005931521
0.0061689553
0.0068155022
0.0070884416
0.02015824
0.038824863
0.069172495
0.19870661
0.33063711
0.57756484
1.0543877
1.7601848
2.773675
3.9770651
5.463756
7.2470565
9.3003143
11.786384
14.84071
18.650133
23.426287
29.35076
36.718663
45.817379
56.49685
68.614966
81.54395
94.727172
108.37402
125.231
150.80206
190.90475
243.67783
298.34144
342.3718
367.08595
369.64375
358.84579
328.5112
281.35602
217.23308
151.93729
105.65492
81.443716
70.846341
64.030411
59.628802
55.840467
52.454677
49.960954
47.057643
44.278214
41.687484
0.054776204
0.047088092
0.041216263
0.03658991
0.03286531
0.029796464
0.027239373
0.025061741
0.023208656
0.021583031
0.020187673
0.018926438
0.01784262
0.016837742
0.015971081
0.015156439
0.014445158
0.013775436
0.01318041
0.012620348
0.012119489
0.01163836
0.011219919
0.010795635
0.010445246
0.010069887
0.0097700429
0.0094384326
0.0091810752
0.0088831316
0.0086625419
0.0083960242
0.0081982129
0.0079722991
0.0077749414
0.0076045306
0.0073992375
0.007265877
0.0070826227
0.0069484007
0.0068036709
0.0066742672
0.0065404333
0.0064357619
0.0063147366
0.0061920537
0.0061124882
0.0059313311
0.0061999593
0.0069567526
0.0073781787
0.021199593
0.053520389
0.067993557
0.2278278
0.32870586
0.61988008
1.2362756
2.0332597
3.1521271
4.347063
5.9770599
7.801555
10.026618
12.62231
15.735829
19.55833
24.388819
30.434749
38.148781
47.721641
58.985779
71.677565
84.822658
98.025369
111.38529
126.71192
148.99037
183.74946
231.20201
283.05111
327.65815
356.69904
362.48437
356.20192
333.10792
292.22705
232.98597
165.52383
114.05553
84.908022
71.117467
63.91429
59.242367
55.875684
52.995672
49.55048
46.912517
44.065839
41.481494
0.054776301
0.04708783
0.041216432
0.036589612
0.03286543
0.02979626
0.027239104
0.025062119
0.02320746
0.021584305
0.02018559
0.018927963
0.017840439
0.016838527
0.015969255
0.015156367
0.014443168
0.013775255
0.013177625
0.012620998
0.012114445
0.011642507
0.011208665
0.010806996
0.010425187
0.010088078
0.0097448555
0.00945676
0.0091586027
0.0088933791
0.0086497765
0.0083949553
0.0081949746
0.0079647412
0.0077762935
0.0075930949
0.0074007357
0.0072506176
0.007090358
0.0069246822
0.0068163691
0.0066461446
0.0065578749
0.0064048649
0.0063173841
0.0061760119
0.006088105
0.0058857652
0.006202517
0.0074380642
0.0073620917
0.016874983
0.025721902
0.063109031
0.21948463
0.3014259
0.53874578
1.1692622
2.0580813
3.2523888
4.4848001
6.2019416
8.0656867
10.390121
13.081442
16.274503
20.164258
25.110662
31.322212
39.411
49.438394
61.264793
74.457579
87.725634
100.93787
113.78429
127.9259
147.61617
177.90374
220.29488
268.7339
312.74225
343.38576
354.39264
351.68064
333.27463
298.69252
244.99073
177.56135
122.49622
89.138925
73.354402
65.432854
60.352666
56.041353
52.569552
49.787302
46.541799
44.07742
41.493788
0.054775298
0.047089313
0.041215158
0.036590823
0.032864177
0.029797156
0.027237396
0.025063589
0.023204234
0.021587128
0.02018067
0.018931494
0.017835179
0.016841033
0.015965363
0.015156473
0.014441584
0.013772576
0.01317767
0.012617563
0.012112958
0.01164172
0.01120357
0.010809595
0.010416776
0.010093175
0.0097342727
0.0094638545
0.0091456031
0.0089018794
0.0086354887
0.0084016065
0.0081850614
0.0079625334
0.0077750323
0.0075862037
0.0074023426
0.0072424197
0.007091495
0.0069184688
0.0068156121
0.0066417406
0.0065549535
0.0063979462
0.0063157092
0.0061231495
0.0060472918
0.0059548172
0.0062438247
0.0079066553
0.0081323104
0.027621612
0.046700127
0.14643156
0.31846295
0.4116754
0.67852591
1.3566577
2.3115119
3.4946268
4.8604154
6.6441066
8.5476129
11.036046
13.820828
17.088725
20.969263
25.956054
32.278161
40.601852
51.068134
63.33357
77.034506
90.270194
103.21987
115.43533
128.71492
146.48511
173.174
210.97575
255.69372
298.22312
330.00607
344.36746
344.0667
330.96104
301.40013
253.11744
187.40508
130.50452
94.167904
75.543946
66.151148
60.606237
55.965612
52.940242
49.97919
47.031309
44.069931
41.427382
0.05477498
0.047089607
0.041214005
0.036591805
0.032862265
0.029798707
0.027235048
0.02506529
0.023201867
0.021588557
0.020178622
0.018932047
0.01783426
0.016839451
0.015966894
0.015151379
0.014446392
0.013763938
0.013184194
0.012607929
0.012117643
0.011634321
0.011203874
0.010805596
0.010414343
0.010089522
0.0097297924
0.0094621612
0.0091369514
0.008903446
0.0086222697
0.0084059523
0.0081690042
0.0079660918
0.0077612805
0.0075852731
0.0073876943
0.0072492891
0.0070647085
0.0069309475
0.0067932685
0.0066395396
0.0065489898
0.0063883576
0.0063066445
0.0061379826
0.0060771246
0.0059132722
0.0068375816
0.0082620573
0.008788743
0.020367024
0.048502665
0.13817319
0.16356454
0.26664584
0.57111126
1.3731555
2.4082463
3.6093857
5.0435642
6.8979725
8.8299311
11.494897
14.347124
17.769547
21.796809
26.939319
33.316837
41.736911
52.604774
65.351163
79.382514
92.101645
104.60655
116.56854
129.18061
145.54383
169.41505
203.21335
244.15533
284.54737
316.30547
333.47337
335.19809
326.69709
300.06298
257.52149
194.82659
137.16903
99.04145
78.09177
67.555672
61.382289
56.452754
52.829885
50.018135
47.015234
43.972386
41.313883
0.054775721
0.047089004
0.041213616
0.036592258
0.032860483
0.029800201
0.027232008
0.025067518
0.023197976
0.021590938
0.020174556
0.018933764
0.017830789
0.016839635
0.015964867
0.015149334
0.014445922
0.013760131
0.013184482
0.012603343
0.012118563
0.011628239
0.011206012
0.010797741
0.010414759
0.01008501
0.0097267561
0.0094592547
0.0091318027
0.0089038421
0.0086123101
0.0084111767
0.0081529728
0.0079743494
0.0077438673
0.0075884914
0.0073748719
0.0072484683
0.007048308
0.0069376353
0.006766472
0.006647629
0.0065293772
0.0063755264
0.0062953946
0.0061042901
0.0060334806
0.0059441331
0.0069247241
0.0071086587
0.0080946461
0.026875643
0.03081004
0.076759063
0.084343167
0.25201634
0.63660259
1.5666081
2.6569464
3.9242305
5.4925734
7.4728291
9.4759559
12.203917
14.902703
18.061231
22.10884
27.448617
33.952511
42.64887
54.064995
67.560107
81.090239
93.773059
105.32696
117.16037
129.2926
144.72888
166.49563
196.92978
234.24541
272.06738
303.09067
321.96029
325.28602
320.17026
297.69083
259.35778
199.90676
145.03835
104.26818
81.394336
69.057302
61.941372
57.093059
52.94845
50.040522
47.040485
44.590289
41.588652
0.054775418
0.047089192
0.041213088
0.036592762
0.032859449
0.029801068
0.027230434
0.025068661
0.023196047
0.021592116
0.020172482
0.018934706
0.017828583
0.016840357
0.015961945
0.015150441
0.014441542
0.013762217
0.013178836
0.012604348
0.01211508
0.011624943
0.011207344
0.010789451
0.010421294
0.010071913
0.0097324821
0.0094505257
0.0091306061
0.008900036
0.0086065527
0.0084094221
0.0081440552
0.0079744729
0.0077342289
0.0075862495
0.0073692
0.0072414396
0.0070433198
0.0069338953
0.0067539457
0.0066551792
0.0065065993
0.0063749912
0.0062947562
0.0061043812
0.0060209629
0.0058470334
0.0063202788
0.0062768095
0.0089065375
0.021469714
0.036349881
0.054159084
0.091546981
0.39297684
1.0343487
1.98567
3.1104861
4.4169193
6.0426691
7.9932413
10.116738
12.710069
15.692249
18.769091
22.797137
28.083092
34.747923
43.901055
55.772804
69.701844
82.600233
94.884387
105.92397
117.17266
129.31491
144.37878
164.54944
192.11896
226.02927
261.03045
290.72091
309.6925
315.28706
311.86681
293.9903
259.83638
204.13084
151.48856
111.68055
86.732299
71.205545
63.145903
58.270831
53.630913
50.812251
47.369942
45.697874
42.683071
0.054775445
0.047089335
0.041213073
0.036592367
0.03285957
0.029799998
0.027230598
0.025067165
0.023195856
0.021590704
0.02017144
0.018933936
0.017826165
0.016840882
0.015957535
0.015153167
0.014433866
0.013767809
0.013167846
0.012611957
0.012102342
0.011630765
0.011198494
0.010786903
0.01042042
0.010062496
0.0097354111
0.0094390196
0.009131068
0.0088918108
0.0086045116
0.0084017028
0.0081410987
0.007967411
0.0077299535
0.0075776763
0.0073659632
0.0072300488
0.0070401354
0.006920582
0.0067473333
0.0066464114
0.0064912881
0.0063663379
0.0062891801
0.006086966
0.0060027259
0.0058488514
0.0058659011
0.006590147
0.013600271
0.022711266
0.044410558
0.065479754
0.18579837
0.58735231
1.3833272
2.3958024
3.5780126
5.1083694
6.7533674
8.8453873
11.044862
13.142302
15.928345
19.097561
22.855354
27.821712
34.944656
44.719563
57.042471
70.975522
83.596551
95.052404
105.99429
116.7813
129.19648
144.20246
163.3248
188.58236
219.43409
251.54367
279.35444
298.10006
304.94475
302.9074
289.19298
257.30296
207.22097
155.3363
118.672
89.142625
75.100744
65.487234
59.443039
54.171494
51.184788
48.633
47.323269
44.462466
0.054775737
0.047088541
0.04121376
0.036590948
0.032860801
0.029797728
0.027232554
0.025063903
0.023198464
0.021586716
0.02017405
0.018930037
0.017827616
0.016838048
0.015956836
0.01515178
0.014431167
0.013767327
0.013163575
0.01261247
0.012096471
0.011632734
0.011190552
0.010788757
0.010414506
0.010056853
0.0097389662
0.0094231616
0.0091432344
0.0088692359
0.0086130989
0.0083885024
0.00813689
0.007961382
0.0077218981
0.0075700421
0.0073600435
0.0072167962
0.0070381491
0.006902541
0.00674448
0.0066279411
0.0064874132
0.0063464964
0.0062590217
0.0060870394
0.0059822058
0.0058315368
0.0058137697
0.0078260274
0.011546195
0.019771144
0.041041853
0.074389371
0.32152836
0.86616868
1.8139484
2.8929586
4.1419768
5.7897859
7.5040929
9.4587108
11.684406
13.65187
16.344354
19.358229
23.162254
27.714982
34.97406
45.620989
58.134974
71.660118
83.899807
94.81461
105.70217
116.67567
128.93693
143.81534
162.61146
186.16156
214.35947
243.63502
269.25875
287.25956
294.69765
293.70959
283.19611
254.20594
209.74631
161.12357
119.28519
93.024756
75.664629
65.847767
59.697832
55.050342
52.46221
50.461904
49.349557
46.640192
0.054775243
0.04708926
0.041213611
0.03659105
0.032860836
0.029797114
0.027232691
0.025062596
0.023198444
0.021585127
0.020173344
0.01892845
0.017826494
0.016835608
0.015956536
0.015147559
0.01443227
0.013761246
0.01316557
0.012605589
0.012096139
0.011629004
0.011185289
0.010789064
0.010405818
0.010058549
0.0097310953
0.0094177376
0.0091439112
0.0088565863
0.0086184591
0.008373544
0.0081382688
0.0079550622
0.0077123468
0.0075690494
0.0073511313
0.0072117241
0.0070332584
0.006892605
0.0067422345
0.0066110212
0.0064879344
0.0063380498
0.0062598408
0.0061137535
0.0060264513
0.0059167908
0.0057634791
0.0056515602
0.0086337565
0.017901185
0.040035991
0.13328715
0.49220462
1.2356149
2.1943783
3.2933228
4.8206399
6.322577
8.3775612
10.155403
12.145977
13.90437
16.388967
19.300216
23.193404
27.825914
35.214659
46.00479
58.804111
71.831465
83.642335
94.577851
105.28125
116.34602
128.86496
143.91779
162.47285
184.93993
210.84351
237.36366
260.59687
277.35738
284.83105
284.50385
276.44463
250.85771
212.07652
161.02029
117.75404
92.541889
74.6786
65.454511
59.685642
56.390581
54.431028
52.904464
51.907047
49.199863
0.054776091
0.047087806
0.041215188
0.036589126
0.032862576
0.029795094
0.027233928
0.025061082
0.023198341
0.021584991
0.020171008
0.018930329
0.017821701
0.01683909
0.01595045
0.015149909
0.014428353
0.013759272
0.013165473
0.012599812
0.012099169
0.011619729
0.011189192
0.010780901
0.010403313
0.010057677
0.0097206294
0.0094228476
0.0091302189
0.0088576651
0.0086133897
0.0083653927
0.0081390349
0.0079449205
0.0077125338
0.0075579239
0.0073523993
0.0071936237
0.0070403944
0.0068733387
0.0067383969
0.0066140666
0.0064612288
0.0063494437
0.0062388013
0.0061074232
0.0059998195
0.0057860894
0.0057974221
0.0067046796
0.032057722
0.068297092
0.12109637
0.29272226
0.74548626
1.5239506
2.5237554
3.742355
5.4287969
7.1723632
9.061063
10.646735
12.296174
14.055105
15.963722
18.669067
22.144977
27.474161
35.07194
46.057379
59.072058
71.859013
83.271457
94.123981
104.76092
116.58306
130.36483
145.92182
163.92473
185.28935
209.11532
232.86008
253.50051
268.57857
275.58763