/*--------------------------------*- C++ -*----------------------------------*\
| =========                 |                                                 |
| \\      /  F ield         | OpenFOAM: The Open Source CFD Toolbox           |
|  \\    /   O peration     | Version:  2406                                  |
|   \\  /    A nd           | Website:  www.openfoam.com                      |
|    \\/     M anipulation  |                                                 |
\*---------------------------------------------------------------------------*/
FoamFile
{
    version     2.0;
    format      ascii;
    arch        "LSB;label=32;scalar=64";
    class       volScalarField;
    location    "300";
    object      nut;
}
// * * * * * * * * * * * * * * * * * * * * * * * * * * * * * * * * * * * * * //

dimensions      [0 2 -1 0 0 0 0];

internalField   nonuniform List<scalar> 
16045
(
0.00014889278
0.00014712892
0.00014559472
0.00014422635
0.00014301365
0.00014189769
0.00014090782
0.00013995762
0.00013913983
0.0001382955
0.00013762357
0.00013684288
0.00013630307
0.00013555298
0.00013514142
0.00013439649
0.00013410106
0.00013337043
0.00013313362
0.00013248726
0.00013220077
0.0001317415
0.0001313038
0.00013108803
0.00013049308
0.00013044856
0.00012983217
0.00012977488
0.00012932515
0.00012909118
0.00012893139
0.0001284568
0.00012856651
0.00012797545
0.00012817495
0.00012759849
0.00012789303
0.0001272329
0.0001276411
0.00012703644
0.0001273634
0.00012676019
0.00012723582
0.00012643917
0.00012664224
0.00012495178
0.00012688573
0.00017192136
0.00020446263
0.00036217572
0.00089071675
0.0019906599
0.0035326069
0.0057492634
0.0086609877
0.012242141
0.017036713
0.023337459
0.030887546
0.040728747
0.053237179
0.067021898
0.081690864
0.099905438
0.11882534
0.13783153
0.15751758
0.1817854
0.2059014
0.2267541
0.25659088
0.30412274
0.34393449
0.35910483
0.41332141
0.71988972
1.523831
2.3878955
2.5980985
2.4612411
2.1575592
1.8581711
1.6117963
1.4283482
1.2964349
1.2002752
1.1271365
1.0684354
1.0191325
0.97641727
0.93836542
0.90422651
0.87318984
0.84510346
0.81913748
0.79519204
0.77358964
0.75096302
0.73711126
0.70958097
0.00014889438
0.00014712696
0.00014559486
0.00014422825
0.0001430084
0.00014190699
0.0001408942
0.00013997588
0.00013911731
0.00013832149
0.00013759479
0.00013687216
0.00013627418
0.00013557728
0.00013512371
0.00013440149
0.00013411115
0.00013334154
0.0001331817
0.00013242245
0.00013228489
0.00013164559
0.00013142134
0.00013096256
0.00013064188
0.00013030455
0.00012998161
0.00012966917
0.00012939799
0.00012908603
0.00012892037
0.00012845162
0.00012864793
0.00012780474
0.00012837998
0.00012739208
0.00012798329
0.00012721589
0.00012746851
0.00012727498
0.0001270063
0.0001269772
0.00012710535
0.00012636841
0.00012677807
0.0001249394
0.00012605613
0.00018426408
0.000322215
0.0005288361
0.0010287422
0.0019688856
0.0034100363
0.0053952949
0.0081703172
0.011872487
0.016443633
0.022158722
0.030096373
0.039478773
0.050408369
0.063244778
0.078574172
0.096730652
0.11472702
0.13189181
0.15080529
0.17647257
0.2026333
0.22673336
0.26101356
0.31616049
0.36770256
0.39608808
0.46115364
0.78576131
1.5487595
2.3243799
2.6137855
2.5577243
2.2803516
1.9683867
1.6807757
1.4650594
1.3147517
1.2110362
1.1351536
1.0752826
1.0254221
0.98229697
0.94391007
0.9095399
0.87826749
0.8499075
0.82373709
0.79956835
0.77773164
0.75506982
0.73993936
0.72010752
0.00014889797
0.00014712171
0.00014560016
0.00014422211
0.00014301233
0.00014190485
0.00014088962
0.00013998641
0.00013909498
0.0001383526
0.0001375498
0.0001369242
0.00013621036
0.00013564252
0.0001350507
0.00013446735
0.00013404432
0.00013338698
0.00013314325
0.00013242669
0.00013228387
0.00013161093
0.00013144234
0.00013090765
0.00013066099
0.00013025285
0.00012997237
0.0001296423
0.00012934203
0.00012908448
0.00012883098
0.00012846228
0.0001285182
0.00012782592
0.00012822737
0.00012738797
0.00012781918
0.00012721837
0.00012723544
0.00012731434
0.00012666017
0.00012705698
0.00012675366
0.00012626233
0.00012651564
0.00012480238
0.00012647568
0.0001467918
0.00017181295
0.00030802871
0.00072998698
0.0016114418
0.0028972905
0.0046873295
0.007278727
0.011205332
0.016091508
0.022900729
0.031341629
0.041825148
0.053628443
0.06630495
0.08057014
0.096296341
0.11146211
0.12784386
0.1476074
0.17382901
0.20183715
0.22872037
0.26662669
0.32867945
0.38898303
0.42561211
0.50081408
0.82634608
1.5567404
2.2897008
2.6445067
2.656224
2.4684085
2.1663177
1.8360398
1.5540971
1.3571336
1.2321554
1.1463453
1.0844779
1.0334678
0.98977845
0.95109881
0.91589692
0.88437828
0.85587932
0.82941083
0.80475689
0.78279777
0.76123999
0.74212093
0.72834996
0.00014889252
0.00014712915
0.00014559353
0.00014422798
0.00014300619
0.00014191047
0.00014087815
0.0001400036
0.00013906273
0.00013839944
0.00013748107
0.00013701202
0.0001361012
0.00013576845
0.00013490953
0.00013461898
0.0001338872
0.0001335423
0.00013299842
0.00013255423
0.00013218116
0.0001316909
0.00013138916
0.00013094663
0.00013064021
0.00013027719
0.00012995256
0.00012967544
0.00012932317
0.00012911262
0.00012879731
0.0001285677
0.00012833215
0.00012814007
0.00012787557
0.00012777337
0.00012753035
0.00012744339
0.0001271238
0.00012739531
0.0001266032
0.0001272102
0.00012638449
0.00012672249
0.00012579762
0.00012628194
0.0001237982
0.0001307333
0.00014888291
0.00022785874
0.00048841416
0.0012379488
0.002525194
0.0043604246
0.0068799986
0.010768263
0.015668303
0.022428825
0.030810728
0.040866636
0.052259703
0.064816948
0.077261779
0.08984573
0.10543192
0.12396785
0.14502974
0.1728759
0.20424758
0.2364037
0.27967781
0.34825433
0.42081481
0.46932644
0.54938622
0.87291455
1.5780675
2.311982
2.7326592
2.7554674
2.6481431
2.3583281
2.0258082
1.6881227
1.4290844
1.2639665
1.1593169
1.0900069
1.0379692
0.99376287
0.95400462
0.92120986
0.88810516
0.85919109
0.83275733
0.80758879
0.78518186
0.76447472
0.74547925
0.73313696
0.0001488921
0.00014712941
0.00014559499
0.00014422414
0.00014301263
0.00014189936
0.00014089179
0.00013998444
0.00013908297
0.00013837442
0.00013750516
0.00013698407
0.00013612638
0.00013574036
0.00013493265
0.00013459382
0.00013390714
0.0001335182
0.00013302457
0.00013251086
0.00013223872
0.0001316055
0.00013148235
0.00013083703
0.00013072999
0.00013018552
0.00012999995
0.00012963419
0.00012929508
0.0001291639
0.0001286568
0.00012870494
0.00012814081
0.00012826658
0.00012766716
0.00012791964
0.00012731331
0.00012746558
0.00012713201
0.00012718286
0.00012664862
0.00012719572
0.00012625437
0.00012663374
0.00012530459
0.00012625538
0.00012415319
0.00013362245
0.00019821493
0.00048025926
0.0012302628
0.0023165855
0.0040300386
0.0062769073
0.0091362444
0.013145579
0.018183754
0.024230009
0.031658992
0.040032942
0.04948384
0.058358974
0.068144527
0.081696336
0.099811179
0.12114115
0.14558764
0.17649621
0.21298015
0.25244605
0.30226123
0.37757377
0.46245848
0.52362212
0.60908373
0.92563575
1.6046128
2.3551013
2.7970918
2.8924717
2.8215105
2.5640678
2.2334651
1.8642046
1.5366539
1.311668
1.1802159
1.0976313
1.0464825
0.99973688
0.95609681
0.93031027
0.891469
0.86149809
0.83477806
0.81047751
0.78800015
0.76696884
0.74980265
0.73717085
0.00014889228
0.00014712961
0.00014559208
0.00014422983
0.00014300309
0.00014191264
0.00014087635
0.0001400002
0.00013907015
0.00013838113
0.00013750624
0.00013697207
0.00013614762
0.00013570779
0.00013497034
0.0001345512
0.00013394383
0.00013348574
0.00013304368
0.00013249365
0.00013225313
0.00013157809
0.00013152478
0.00013077201
0.00013081302
0.00013009708
0.00013008892
0.0001295608
0.00012933307
0.00012916753
0.00012858819
0.00012881138
0.00012798363
0.00012842576
0.00012752841
0.00012800013
0.00012724565
0.00012755313
0.00012696955
0.00012733137
0.00012656824
0.0001271327
0.00012624606
0.00012683372
0.00012565751
0.00012638238
0.00012392546
0.00014079894
0.00016615332
0.00030431774
0.00069371649
0.0013731197
0.0024170234
0.0038753878
0.0061223197
0.0092299718
0.01289831
0.017918534
0.024102855
0.030600142
0.037198235
0.046410099
0.059551143
0.076390935
0.098083882
0.12335459
0.1522751
0.18721552
0.22947451
0.27666292
0.33345734
0.41489855
0.51176532
0.5886685
0.67941287
0.96861972
1.6185588
2.3857872
2.8728191
3.0342383
2.9781793
2.7784497
2.4466686
2.0768155
1.6954437
1.3998605
1.2158446
1.1131052
1.0542764
1.0117948
0.96153955
0.93015595
0.89324291
0.86248108
0.83599165
0.81264785
0.7907489
0.77110661
0.74990275
0.73810855
0.00014889091
0.00014713219
0.00014558754
0.00014423663
0.00014299336
0.00014192394
0.00014086345
0.00014000963
0.00013906498
0.00013837285
0.00013752772
0.00013692802
0.00013620781
0.00013562774
0.00013505431
0.00013446578
0.00013400913
0.00013344097
0.00013304749
0.00013251908
0.00013218064
0.00013166131
0.00013141315
0.00013085562
0.00013072514
0.0001301154
0.00013008526
0.00012947037
0.00012945336
0.00012892863
0.00012885117
0.00012845057
0.00012829261
0.00012806574
0.00012777252
0.0001276848
0.00012747367
0.00012715386
0.00012728703
0.00012689901
0.00012676586
0.00012696492
0.0001262819
0.00012672245
0.00012606575
0.00012628636
0.00012538473
0.00012551159
0.00012426681
0.00012240465
0.00013957602
0.00032452173
0.0007907148
0.001403069
0.002547138
0.0044020273
0.0065732362
0.010594196
0.014624377
0.020028561
0.028657367
0.040752225
0.056883337
0.077951823
0.10359141
0.13327309
0.16683229
0.20636058
0.25390714
0.30834469
0.37260765
0.45921319
0.56565144
0.66147677
0.75864699
1.0061349
1.6103686
2.3813879
2.9214502
3.154866
3.122058
2.9815766
2.6664664
2.3006809
1.8957296
1.5287626
1.2843421
1.1422218
1.0692759
1.0281925
0.97365642
0.93896645
0.89499275
0.86340191
0.83616048
0.81413903
0.79278397
0.77462475
0.75413331
0.74290991
0.00014888879
0.00014713479
0.00014558567
0.00014423506
0.00014299988
0.00014190705
0.00014089115
0.00013996644
0.00013911964
0.00013830666
0.00013759584
0.00013686126
0.00013626326
0.00013558381
0.00013507998
0.00013445465
0.0001339957
0.00013347695
0.00013297164
0.00013263137
0.00013202301
0.00013185212
0.00013119193
0.0001310901
0.00013048727
0.00013033302
0.0001298793
0.00012963527
0.00012930049
0.00012902874
0.00012877061
0.00012845021
0.00012831633
0.00012796126
0.00012778574
0.0001277239
0.00012721303
0.00012747325
0.00012686134
0.00012719425
0.00012653234
0.00012698277
0.00012627283
0.00012644468
0.00012627928
0.00012542769
0.00012560214
0.00012485809
0.00012344556
0.0001216504
0.00012313278
0.00018411103
0.0003557472
0.00039998746
0.00052438677
0.0018101441
0.0035134619
0.005240816
0.0089813162
0.015531532
0.025637884
0.041434262
0.061971927
0.087258891
0.11712156
0.150728
0.18839797
0.23238806
0.28437324
0.34522968
0.41700475
0.50868947
0.62194499
0.7344828
0.84148834
1.056573
1.5899813
2.3422225
2.9333462
3.2210411
3.2468376
3.155652
2.8842697
2.5262722
2.1269841
1.7059158
1.3854966
1.1932679
1.0896855
1.03795
0.98334695
0.9368931
0.89526298
0.8671126
0.83834746
0.81612103
0.7955736
0.77972917
0.75658798
0.74380878
0.00014889396
0.00014712722
0.00014559353
0.00014422428
0.00014301159
0.00014189074
0.00014090902
0.00013994282
0.00013914286
0.00013828009
0.00013761644
0.00013684179
0.00013627227
0.0001355759
0.00013508211
0.0001344438
0.00013401407
0.00013344108
0.00013301867
0.00013257246
0.00013206922
0.00013181701
0.00013119194
0.00013109582
0.00013045925
0.00013036325
0.00012982931
0.00012967967
0.00012925351
0.00012904072
0.00012877183
0.00012842002
0.00012837714
0.00012786523
0.00012796354
0.00012752123
0.00012743047
0.00012737757
0.00012686819
0.00012727607
0.00012644161
0.0001270587
0.00012617283
0.00012667835
0.00012605936
0.000125604
0.00012609632
0.00012385155
0.00012677189
0.00012697021
0.00012841674
0.00013521845
0.00023033715
0.0004349274
0.00051010526
0.00076874731
0.0024061128
0.0043454872
0.0063360493
0.013429516
0.029037157
0.049665984
0.074998381
0.10446965
0.13741344
0.17357798
0.21444293
0.26191658
0.31787455
0.38458188
0.46358497
0.56119361
0.67954024
0.80537336
0.92665822
1.1232021
1.5735745
2.2728657
2.8971353
3.2597023
3.3413833
3.2871021
3.0856726
2.747556
2.3569618
1.9198927
1.5251272
1.2618453
1.1251848
1.051203
1.0051093
0.95932147
0.90367926
0.87316396
0.84595748
0.81878838
0.79919431
0.78498992
0.7690142
0.75250118
0.00014889702
0.00014712353
0.00014559229
0.00014422965
0.0001429966
0.00014191413
0.00014087436
0.00013998489
0.00013909437
0.0001383302
0.00013756652
0.00013689097
0.00013622423
0.0001356252
0.00013503513
0.00013448608
0.00013398505
0.00013345094
0.00013303122
0.00013254152
0.00013211725
0.00013175823
0.00013125696
0.0001310361
0.00013049317
0.0001303461
0.00012981195
0.00012970172
0.00012919563
0.00012911811
0.00012861498
0.00012859775
0.0001280996
0.00012810554
0.00012766721
0.00012764877
0.00012729625
0.00012731511
0.00012681242
0.0001272217
0.00012634758
0.00012694328
0.00012624601
0.00012639842
0.00012627095
0.00012557886
0.00012589547
0.00012513803
0.00012428468
0.00012455902
0.00012409349
0.0001217199
0.00012264299
0.00013760185
0.00048722121
0.0011306016
0.0015790936
0.0033640033
0.011268832
0.02622294
0.045486393
0.068695779
0.09587155
0.12646165
0.16002214
0.19732163
0.24041836
0.29085512
0.35092829
0.42338939
0.50954906
0.6134932
0.73680743
0.87249385
1.0094587
1.1950113
1.5646395
2.1792234
2.8129882
3.2451529
3.4129941
3.3832405
3.2518104
2.9527955
2.5794087
2.1525503
1.7048622
1.365706
1.1693915
1.0668328
1.0078669
0.96153151
0.90586457
0.8813278
0.8516343
0.82328153
0.80706637
0.7926245
0.76951491
0.75275242
0.00014889815
0.00014712203
0.00014559468
0.00014422789
0.0001429981
0.00014191393
0.00014087345
0.00013998465
0.00013909558
0.00013832282
0.00013757686
0.00013687333
0.00013623931
0.00013561229
0.00013503251
0.000134502
0.00013394695
0.00013349771
0.00013297472
0.00013258435
0.00013208474
0.00013175786
0.00013127616
0.00013098408
0.00013055877
0.00013025816
0.00012988894
0.00012964222
0.00012919845
0.00012916127
0.00012851973
0.00012872664
0.00012795662
0.00012825977
0.00012750493
0.00012785684
0.00012707166
0.00012753512
0.00012672413
0.00012723014
0.00012646013
0.0001269433
0.00012624192
0.00012657393
0.0001260977
0.00012617186
0.00012595806
0.00012547486
0.00012544678
0.00012555146
0.00012269196
0.00012411134
0.00014823763
0.00050627326
0.0015028106
0.0027473241
0.004687277
0.011172447
0.02357837
0.039705862
0.06017535
0.084278975
0.11242601
0.14368993
0.17798125
0.21688835
0.26235345
0.31624038
0.38100957
0.45938703
0.55261001
0.66299691
0.79146248
0.93388759
1.0807703
1.2567666
1.5633988
2.0776722
2.6941657
3.1772956
3.4260122
3.4505049
3.3729651
3.1335772
2.7879517
2.3732251
1.9145494
1.4967416
1.22796
1.0864656
1.0051571
0.95821749
0.91393
0.88087489
0.86272233
0.82947294
0.81046676
0.79557769
0.77369651
0.75993274
0.00014889782
0.00014712155
0.0001455987
0.00014422251
0.00014300645
0.00014190539
0.0001408806
0.0001399817
0.00013909134
0.00013833447
0.00013755633
0.00013690021
0.00013620542
0.00013564622
0.00013499545
0.00013453172
0.00013391676
0.00013351498
0.00013295613
0.00013258666
0.00013207872
0.00013175331
0.00013126151
0.00013100108
0.00013051986
0.00013029823
0.00012984437
0.00012966178
0.00012920808
0.0001291121
0.00012857913
0.00012866915
0.00012797995
0.00012823655
0.0001275119
0.00012780528
0.00012709462
0.00012749515
0.0001267254
0.00012720758
0.00012656325
0.00012687229
0.00012656383
0.00012642793
0.00012661302
0.00012628427
0.00012598194
0.00012615236
0.00012554652
0.00012450752
0.00012285219
0.00012506553
0.00023977344
0.00095020189
0.0013490764
0.0025448169
0.0061645645
0.014926066
0.027913656
0.044739564
0.06621918
0.091354347
0.12099848
0.15394293
0.19006017
0.23120501
0.27944565
0.33715148
0.406795
0.49095098
0.59079304
0.70745254
0.8410558
0.98849905
1.1417051
1.311589
1.5721926
2.0019747
2.5612596
3.0685356
3.3998737
3.488618
3.4471914
3.2806496
2.9726965
2.5804416
2.1238774
1.6537883
1.3155021
1.1416997
1.0178607
0.96587143
0.90707118
0.88164018
0.86540171
0.83918972
0.82035714
0.79637213
0.76973153
0.75650606
0.00014889372
0.00014712674
0.00014559793
0.00014421968
0.00014301559
0.00014189031
0.0001408991
0.00013996072
0.00013910703
0.00013832389
0.00013755396
0.00013690848
0.00013618778
0.00013566349
0.000134976
0.00013454561
0.00013390858
0.00013351029
0.00013297837
0.00013254372
0.00013214214
0.0001316782
0.0001313394
0.00013093485
0.000130557
0.00013029001
0.0001298261
0.00012968327
0.00012918443
0.00012911141
0.00012858991
0.00012862849
0.00012802476
0.00012819018
0.00012755976
0.00012778098
0.00012714312
0.0001274758
0.00012677356
0.00012717548
0.00012666528
0.00012671965
0.00012670258
0.00012626442
0.00012669332
0.0001257553
0.00012607605
0.00012523832
0.0001226824
0.00012614021
0.00013062887
0.00017049911
0.0006436021
0.0016177503
0.0021307776
0.0051738859
0.011288128
0.021536259
0.035535305
0.053612625
0.076132598
0.10125273
0.12979721
0.16257622
0.1996412
0.24190124
0.29228145
0.35339178
0.42748228
0.51675754
0.62258448
0.74495505
0.88349897
1.0347293
1.1915828
1.3589191
1.5870058
1.9493129
2.4382916
2.9398478
3.3186187
3.498092
3.4848574
3.3843608
3.1258642
2.7676362
2.3307184
1.830179
1.4215322
1.1860081
1.0503094
0.97152841
0.9150256
0.88993956
0.87314239
0.84934084
0.81977637
0.79628479
0.77173457
0.75007271
0.00014889152
0.00014712975
0.00014559424
0.0001442226
0.00014301322
0.00014188935
0.00014090189
0.00013995377
0.00013911557
0.00013831183
0.0001375672
0.00013689207
0.00013620567
0.00013564143
0.00013499881
0.0001345223
0.00013392227
0.00013350651
0.0001329647
0.00013256132
0.00013212
0.00013168378
0.00013134305
0.00013090601
0.00013059066
0.00013024633
0.00012984395
0.00012969309
0.00012913753
0.00012917811
0.00012851877
0.0001286878
0.00012797257
0.00012824925
0.00012748063
0.0001278628
0.00012708647
0.0001275459
0.00012675681
0.0001272685
0.00012666409
0.00012679767
0.00012687789
0.00012623754
0.00012677583
0.00012566844
0.00012600341
0.00012491168
0.00012321006
0.00015014245
0.00015390565
0.00033574945
0.00054893922
0.0012493508
0.0019157145
0.0050044774
0.010911739
0.020926475
0.03439174
0.051757536
0.074666115
0.10015315
0.12918796
0.16231138
0.20062103
0.24551736
0.29923332
0.36408563
0.44223858
0.53583477
0.64697039
0.77441772
0.91772373
1.0720095
1.2310859
1.3964476
1.603587
1.913248
2.3433915
2.8130256
3.209354
3.4491119
3.4971272
3.4407011
3.2464886
2.9280032
2.5164317
2.0022382
1.5627864
1.2529271
1.0604601
0.97338378
0.9176078
0.89296466
0.87307273
0.84915121
0.82993462
0.81563088
0.78726207
0.76197469
0.00014889129
0.00014713082
0.00014559143
0.00014422722
0.00014300636
0.00014189626
0.00014089495
0.00013995464
0.00013911911
0.00013829508
0.00013759098
0.00013685128
0.00013625216
0.00013557889
0.0001350616
0.00013444854
0.00013398997
0.00013343038
0.00013303304
0.00013248141
0.00013219556
0.0001315867
0.00013143988
0.00013077995
0.00013070333
0.00013010209
0.00012995499
0.00012955154
0.00012920254
0.00012911314
0.00012848823
0.00012868894
0.00012792478
0.00012824714
0.00012745085
0.00012787832
0.00012702696
0.00012755977
0.0001267451
0.0001273051
0.00012658988
0.00012699463
0.0001266336
0.00012637425
0.00012689658
0.00012550422
0.00012581114
0.00012450131
0.0001229641
0.00015042428
0.00015767346
0.00039749041
0.0005608036
0.0020478273
0.0043168584
0.0083680243
0.014496431
0.025104131
0.04094628
0.05996989
0.082452723
0.10782696
0.13700867
0.16913167
0.20677906
0.25175911
0.30577845
0.37186377
0.45193311
0.54863031
0.66404147
0.79632231
0.94419015
1.1013738
1.2619296
1.424535
1.6190725
1.8879049
2.2676108
2.7057901
3.1023864
3.3785296
3.4843634
3.4583554
3.3277679
3.0555499
2.6775636
2.180497
1.6697896
1.3451539
1.0969818
0.97931882
0.93560115
0.89451237
0.8755498
0.84566013
0.83059877
0.81375149
0.78951624
0.76220902
0.0001488903
0.00014713176
0.00014559057
0.00014422761
0.00014300516
0.00014189582
0.00014089477
0.00013994994
0.00013912619
0.00013827922
0.00013761125
0.00013682322
0.0001362802
0.00013554909
0.00013508458
0.00013442601
0.00013400346
0.00013341363
0.0001330431
0.00013246432
0.00013220951
0.00013156013
0.00013147289
0.00013073468
0.00013076528
0.00013002258
0.00013007601
0.00012938936
0.00012942932
0.00012881946
0.00012879753
0.0001283628
0.00012813336
0.00012806296
0.00012746797
0.00012782185
0.00012696127
0.00012748804
0.00012666755
0.00012723166
0.00012646681
0.00012705863
0.00012630851
0.00012677006
0.00012636364
0.00012577542
0.00012630595
0.0001243716
0.00013103582
0.00014705822
0.00015542582
0.00044660786
0.00087200157
0.0016051907
0.0046458845
0.0076834089
0.013220797
0.023615486
0.03835578
0.058481965
0.080828096
0.10678842
0.13611824
0.16805857
0.20549049
0.25071814
0.30598422
0.37382003
0.4555888
0.55538435
0.67481316
0.81220991
0.96493493
1.1246471
1.2862068
1.4481251
1.6308178
1.8706257
2.2073164
2.6131507
3.0033047
3.2986834
3.4502412
3.4571087
3.370551
3.1485787
2.8086067
2.3417582
1.8066497
1.3645
1.1157424
1.0023947
0.93569818
0.89917012
0.8698167
0.84204708
0.82811384
0.81137107
0.78497252
0.76987469
0.00014889268
0.00014712823
0.00014559521
0.00014422142
0.00014301127
0.00014188755
0.0001409013
0.00013993948
0.00013913471
0.00013826464
0.0001376242
0.0001368044
0.00013629658
0.00013553013
0.00013509944
0.00013441316
0.00013400938
0.00013341701
0.00013302294
0.00013249817
0.00013215547
0.00013161351
0.00013140828
0.00013077686
0.00013071911
0.0001300399
0.00013005364
0.00012937549
0.00012946556
0.00012874883
0.00012892738
0.00012821914
0.00012835336
0.00012787228
0.00012764929
0.00012772723
0.00012703432
0.00012741937
0.00012679791
0.00012690453
0.00012669734
0.00012661993
0.00012637433
0.00012653579
0.00012622824
0.0001258179
0.0001262718
0.00012428145
0.00013174
0.00015027078
0.00016182079
0.00047021547
0.0012078419
0.0015827974
0.0053237749
0.007616433
0.014096216
0.027389342
0.043597717
0.065042232
0.085999948
0.11323355
0.14161344
0.17477265
0.2120908
0.25617144
0.30961874
0.37596786
0.45723853
0.55895628
0.6820528
0.82399663
0.98190491
1.1431004
1.3082071
1.4720363
1.6443058
1.8615513
2.161449
2.5344559
2.9119466
3.2176976
3.4074035
3.4314569
3.3794631
3.2057964
2.9079827
2.4801985
1.9335256
1.4535704
1.1525005
1.0029194
0.93024503
0.89118645
0.86418126
0.84798175
0.8171296
0.80340821
0.77800864
0.75998575
0.00014889316
0.00014712723
0.00014559588
0.00014422013
0.00014301194
0.00014188667
0.00014090046
0.00013994198
0.00013912886
0.00013827382
0.00013761246
0.00013681774
0.00013628394
0.00013554086
0.00013508984
0.00013441977
0.00013399882
0.00013342574
0.00013300546
0.00013251884
0.00013211451
0.00013167827
0.00013129437
0.00013093693
0.00013049062
0.00013030226
0.00012974627
0.0001296595
0.00012918395
0.00012893462
0.00012878128
0.0001282478
0.00012835566
0.00012780167
0.00012774465
0.00012759656
0.0001271415
0.00012724773
0.0001270522
0.00012658179
0.00012704592
0.00012622347
0.0001268375
0.00012601754
0.00012640888
0.0001256639
0.00012582032
0.00012338099
0.000131969
0.00016100809
0.0001616091
0.00037423344
0.00058334344
0.0014743314
0.0051297119
0.0069517137
0.012136653
0.02553027
0.043248147
0.065442405
0.086129123
0.1136839
0.14138371
0.17470079
0.21198067
0.25549682
0.30819209
0.37427929
0.45603074
0.56004789
0.6869091
0.83391564
0.99774048
1.1618236
1.3354248
1.4941185
1.6583625
1.8587981
2.1284608
2.4698919
2.8299471
3.1373605
3.3402627
3.4040627
3.3782771
3.2323778
2.9798337
2.5922832
2.0435884
1.5398211
1.1992671
1.0268295
0.94721886
0.90426575
0.86383418
0.83875172
0.81599822
0.79079762
0.77160586
0.75836429
0.00014889039
0.00014713172
0.00014559159
0.00014422527
0.00014300692
0.00014189228
0.00014089224
0.0001399528
0.00013911041
0.000138296
0.00013758034
0.00013684898
0.0001362462
0.00013556839
0.00013506106
0.0001344302
0.00013399085
0.00013341228
0.00013301599
0.00013249882
0.00013211278
0.00013168897
0.00013125435
0.00013099224
0.00013041012
0.00013039691
0.00012963572
0.00012979116
0.0001290366
0.0001290986
0.00012861091
0.00012839703
0.00012824733
0.00012782562
0.00012777388
0.00012754886
0.00012722656
0.00012718305
0.00012713461
0.00012654896
0.00012711386
0.00012623996
0.00012686627
0.0001259976
0.00012652313
0.0001247484
0.00012512381
0.0001249803
0.0001332083
0.00017156078
0.00017871337
0.00061299982
0.0010670064
0.0034312471
0.007429652
0.00943035
0.015115714
0.029147123
0.047566707
0.068559109
0.090696129
0.11801493
0.14494878
0.17941931
0.21651155
0.25939054
0.31009332
0.37498599
0.4565611
0.56116748
0.69225102
0.84449726
1.0139035
1.1856896
1.3520091
1.5097458
1.6707854
1.860625
2.1069425
2.4196721
2.7592695
3.0616778
3.2765816
3.3637984
3.3540118
3.2460738
3.0214763
2.6734563
2.1306282
1.6229566
1.2514706
1.0532235
0.95547269
0.90452666
0.86004797
0.84163055
0.8160974
0.79841145
0.77118518
0.7580055
0.00014888993
0.00014713227
0.00014558835
0.00014422851
0.00014299996
0.00014189889
0.00014088214
0.00013996143
0.00013909939
0.00013830418
0.00013757126
0.0001368524
0.00013624615
0.00013555676
0.00013508345
0.00013438835
0.00013404841
0.00013333423
0.00013309923
0.00013240612
0.00013218611
0.0001316177
0.00013128438
0.00013096255
0.00013040851
0.00013037708
0.00012960741
0.00012980277
0.00012895174
0.00012916104
0.00012846056
0.00012850561
0.00012805438
0.00012792816
0.00012761724
0.00012758592
0.00012705486
0.00012736714
0.00012674535
0.00012685437
0.0001268049
0.00012629795
0.00012686762
0.00012593114
0.00012650207
0.00012521644
0.00012587241
0.00012434375
0.00014621056
0.00017964944
0.00019331927
0.00045389805
0.0011134594
0.0032410617
0.0038082895
0.0060695915
0.012585745
0.029035761
0.048567758
0.069097803
0.09155779
0.11890577
0.1450866
0.18108138
0.21777164
0.2614891
0.312721
0.37848731
0.45884656
0.56358425
0.69793707
0.85923284
1.0340838
1.1985522
1.3590002
1.5222523
1.6827372
1.8664012
2.0958233
2.3836607
2.7014738
2.9936166
3.211294
3.3206534
3.321852
3.2488693
3.0325493
2.7204529
2.1985687
1.6936578
1.2994757
1.077583
0.96899498
0.91389532
0.86683917
0.83882717
0.81488554
0.79849231
0.7645386
0.75071868
0.00014889191
0.00014713025
0.00014558714
0.00014423065
0.0001429926
0.00014190733
0.00014086706
0.00013997641
0.00013907744
0.00013832297
0.00013754668
0.00013686925
0.00013622524
0.0001355641
0.00013507471
0.00013437866
0.00013405534
0.00013330943
0.00013311671
0.00013237441
0.00013221455
0.00013157024
0.00013133236
0.00013089432
0.00013044115
0.00013035292
0.00012959834
0.00012980553
0.00012891489
0.00012921906
0.00012835224
0.00012864996
0.00012784758
0.00012813675
0.00012738582
0.00012772339
0.00012690275
0.00012745128
0.00012652872
0.00012709055
0.00012640784
0.00012658091
0.00012660631
0.00012582884
0.00012646156
0.00012467794
0.00012517149
0.00012521275
0.00014844539
0.00015487836
0.00017828607
0.00060110122
0.00070987173
0.001803352
0.0019590674
0.005698622
0.013876796
0.032649956
0.05258509
0.073454139
0.097197677
0.12531478
0.15129039
0.18677525
0.21976007
0.25826635
0.30854657
0.37597947
0.45702801
0.56542698
0.70622871
0.88020362
1.0468613
1.2120053
1.3637968
1.5343565
1.6947356
1.8762309
2.0945516
2.3613829
2.6574181
2.9354727
3.1508383
3.2741002
3.2830138
3.2358115
3.0419768
2.7478954
2.2607034
1.782871
1.3655088
1.1219266
0.99036499
0.91852634
0.87248114
0.83570478
0.81099796
0.79266739
0.76684389
0.74645306
0.00014889088
0.00014713148
0.00014558467
0.00014423343
0.00014298759
0.00014191246
0.00014085883
0.00013998441
0.00013906623
0.00013833351
0.00013753351
0.00013688096
0.00013621096
0.00013557692
0.0001350552
0.00013439823
0.00013402297
0.00013334351
0.00013307093
0.00013240441
0.00013219122
0.0001315579
0.00013136878
0.00013082219
0.00013055334
0.00013021455
0.00012971471
0.00012972159
0.0001289463
0.00012920596
0.00012832491
0.00012867027
0.0001277775
0.00012819399
0.00012730766
0.00012774768
0.00012690538
0.00012739628
0.00012655531
0.00012711254
0.00012630802
0.00012684656
0.00012630335
0.0001259976
0.00012662342
0.00012487288
0.00012512155
0.00012342671
0.00013582699
0.00013701631
0.00019655761
0.00048188891
0.00084388056
0.0012703519
0.0021222394
0.0088491186
0.022381979
0.040934263
0.060601245
0.081064659
0.10448244
0.13065247
0.15725433
0.18928513
0.22545686
0.26220392
0.3116888
0.37798884
0.46129594
0.57532461
0.7222884
0.89765077
1.0626699
1.2208658
1.374762
1.5453312
1.71004
1.8943586
2.1045025
2.3528787
2.6275151
2.8888153
3.0972532
3.221032
3.2457439
3.2092082
3.0471875
2.7703674
2.3149807
1.8550495
1.4647475
1.1971827
1.0213514
0.93500403
0.88783454
0.8422448
0.8181016
0.78788113
0.77385955
0.75344745
0.00014889061
0.00014713222
0.00014558461
0.00014423257
0.00014298887
0.00014190849
0.00014086159
0.00013997785
0.00013906831
0.00013832748
0.00013753122
0.00013688002
0.00013619955
0.00013558761
0.00013502833
0.0001344309
0.00013396656
0.00013340901
0.00013297923
0.00013250045
0.00013207516
0.00013164657
0.00013129191
0.00013082065
0.00013057507
0.00013012863
0.00012979195
0.00012960924
0.00012899328
0.00012914575
0.00012833743
0.00012862387
0.00012778045
0.00012816639
0.00012729183
0.00012770531
0.00012691986
0.00012730573
0.00012659387
0.00012699153
0.0001263174
0.00012681141
0.00012616807
0.00012601441
0.00012667765
0.00012474963
0.00012493583
0.00012374551
0.00012639295
0.00014414003
0.00030075956
0.00051197829
0.0010355843
0.001538788
0.004300914
0.013171781
0.029728441
0.048803649
0.06851988
0.091708431
0.11379527
0.14041431
0.1666813
0.18976697
0.22180321
0.26135249
0.30831732
0.37108341
0.46063069
0.58250204
0.7341018
0.91261503
1.0721438
1.2215344
1.3866648
1.5570711
1.7290067
1.9170613
2.1223099
2.3557928
2.6107959
2.8541038
3.0510092
3.1740846
3.2062607
3.1786527
3.0489153
2.7728565
2.3467433
1.8943079
1.5484088
1.2232196
1.0691924
0.95991413
0.89429599
0.83810813
0.81099158
0.7941754
0.7860691
0.76953462
0.00014889179
0.00014712954
0.00014558771
0.00014422673
0.00014299529
0.00014189772
0.00014087316
0.00013996061
0.00013908566
0.00013830468
0.00013755112
0.00013685712
0.00013621372
0.00013557326
0.00013502749
0.00013443041
0.00013395042
0.0001334186
0.00013295181
0.00013252119
0.00013203581
0.00013168611
0.00013123171
0.00013086615
0.00013053935
0.00013008779
0.00012988377
0.00012943085
0.00012922057
0.0001288618
0.00012853315
0.00012847354
0.0001277911
0.00012813709
0.00012723675
0.00012767176
0.00012689667
0.00012718661