/*--------------------------------*- C++ -*----------------------------------*\
| =========                 |                                                 |
| \\      /  F ield         | OpenFOAM: The Open Source CFD Toolbox           |
|  \\    /   O peration     | Version:  2406                                  |
|   \\  /    A nd           | Website:  www.openfoam.com                      |
|    \\/     M anipulation  |                                                 |
\*---------------------------------------------------------------------------*/
FoamFile
{
    version     2.0;
    format      ascii;
    arch        "LSB;label=32;scalar=64";
    class       volScalarField;
    location    "300";
    object      omega;
}
// * * * * * * * * * * * * * * * * * * * * * * * * * * * * * * * * * * * * * //

dimensions      [0 0 -1 0 0 0 0];

internalField   nonuniform List<scalar> 
16045
(
367.88985
320.05154
283.09303
253.71855
229.82331
210.0235
193.34637
179.12482
166.84185
156.14755
146.73497
138.40874
130.97602
124.3121
118.30586
112.85016
107.90704
103.35729
99.22545
95.375925
91.873071
88.581412
85.570235
82.735718
80.113643
77.656741
75.354408
73.204854
71.177418
69.279089
67.482206
65.807924
64.189471
62.724408
61.254605
59.956273
58.650928
57.450074
56.339282
55.198037
54.247433
53.208349
52.334094
51.436802
50.614244
49.832167
49.078496
48.359891
47.69498
47.026719
46.368573
45.817918
45.121202
44.613832
43.866442
43.408816
42.73746
41.930974
41.439735
40.813692
39.947908
39.900696
40.068184
40.341218
40.706097
41.158028
41.731339
42.354746
43.117352
44.247965
45.736033
47.439657
49.808245
54.274444
62.255929
75.307573
91.613862
107.73536
113.65486
111.25578
103.60711
96.046032
90.415896
86.548868
83.731984
81.403505
79.226826
77.060034
74.849793
72.597586
70.333814
68.065736
65.846661
63.63969
61.561442
59.416634
57.599064
55.394496
54.088751
51.35759
367.88994
320.0501
283.09133
253.71382
229.81947
210.01493
193.34087
179.11239
166.83496
156.13198
146.72584
138.39214
130.96219
124.29792
118.28408
112.84176
107.87517
103.356
99.183668
95.379997
91.824689
88.5843
85.523789
82.727229
80.07678
77.634549
75.322808
73.17771
71.140971
69.253135
67.43781
65.784046
64.134703
62.706806
61.181606
59.946897
58.564957
57.435474
56.254994
55.162851
54.170832
53.140472
52.26987
51.327444
50.564673
49.681676
49.018746
48.215588
47.579706
46.893374
46.221067
45.633889
45.034526
44.353994
43.700315
43.28049
42.382867
41.927537
40.935746
41.038335
41.216382
41.389221
41.595437
41.804446
42.077783
42.385929
42.861477
43.436673
44.187804
45.312219
46.874538
48.753162
51.088721
55.277875
62.662501
74.653959
89.750278
104.24337
112.21412
112.28616
106.47689
98.083184
91.397398
86.939588
83.878592
81.47581
79.305161
77.169251
74.983398
72.745938
70.485561
68.212837
65.985382
63.769968
61.679767
59.523869
57.69902
55.490247
54.195385
51.743742
367.89048
320.04905
283.09156
253.71192
229.81953
210.01234
193.34089
179.10892
166.83531
156.12691
146.72726
138.38446
130.96527
124.28722
118.28775
112.83005
107.87504
103.34833
99.174283
95.379669
91.804892
88.589898
85.496794
82.733791
80.048098
77.635429
75.297515
73.167727
71.122555
69.230429
67.427139
65.742924
64.137511
62.643697
61.194329
59.872557
58.568745
57.367776
56.236085
55.096706
54.153833
53.047342
52.258686
51.243032
50.508704
49.639233
48.928141
48.168825
47.499682
46.82847
46.132779
45.60263
44.898384
44.318467
43.621499
43.147782
42.471068
41.296068
41.147915
41.126825
41.291354
41.518884
41.78175
42.055872
42.387514
42.748895
43.287474
43.920239
44.750995
45.911365
47.499973
49.455904
51.755398
55.381529
62.052366
73.406662
87.228113
100.17213
109.52784
111.36671
109.22939
101.95027
93.920468
88.117153
84.474958
81.736407
79.508179
77.253654
75.048776
72.823425
70.58814
68.334923
66.112043
63.888314
61.79415
59.656741
57.793693
55.640337
54.333009
52.113284
367.88998
320.04952
283.09041
253.71198
229.81744
210.01131
193.338
179.10598
166.83222
156.12093
146.72506
138.37405
130.965
124.27196
118.28928
112.81067
107.878
103.32493
99.178549
95.353085
91.809097
88.561525
85.499969
82.704591
80.049191
77.606057
75.296833
73.138865
71.115863
69.20581
67.413735
65.718228
64.121772
62.61055
61.181551
59.832943
58.54906
57.339452
56.189203
55.097176
54.071958
53.076621
52.165352
51.259017
50.450179
49.613992
48.889513
48.157474
47.429224
46.821444
46.099416
45.533892
44.92664
44.184988
43.746453
42.943171
42.554694
41.414355
41.275459
41.299932
41.455544
41.712243
41.988101
42.316861
42.724266
43.197285
43.863434
44.656342
45.641589
46.876946
48.487361
50.505392
52.729338
55.806534
61.818594
72.320162
85.118037
97.049732
106.13258
110.30039
109.87762
105.38943
97.337886
90.007007
85.151373
81.936144
79.62987
77.364206
75.12348
72.878321
70.636635
68.399811
66.193743
63.972491
61.855465
59.790933
57.918515
55.798133
54.401242
52.285794
367.88996
320.04957
283.08955
253.71198
229.81525
210.01147
193.33413
179.10689
166.82575
156.12404
146.71414
138.38132
130.94812
124.28351
118.268
112.82264
107.85728
103.33159
99.162657
95.35225
91.796397
88.556532
85.484957
82.699947
80.030449
77.598405
75.280508
73.123005
71.102389
69.18193
67.400888
65.68618
64.10839
62.572041
61.161726
59.791612
58.517359
57.298615
56.144649
55.053531
54.016179
53.02586
52.105457
51.185268
50.412455
49.49059
48.883865
48.012748
47.409161
46.727484
46.042999
45.44782
44.885952
44.22096
43.563751
43.104506
42.47728
41.301292
40.917274
41.13488
41.444284
41.778483
42.164062
42.625152
43.196017
43.869001
44.703719
45.679781
46.804432
48.103034
49.754001
51.756249
53.858672
56.520704
61.89363
71.501479
83.456433
94.758281
103.56808
108.91748
109.6841
107.56977
100.96541
92.849817
86.587643
82.709619
79.810235
77.517661
75.2139
72.954392
70.724481
68.501564
66.32427
64.097925
61.974306
59.911225
58.051201
55.97243
54.478384
52.407456
367.89012
320.04904
283.09002
253.71068
229.81592
210.00902
193.33484
179.10331
166.82585
156.12012
146.71181
138.37894
130.94105
124.28363
118.25674
112.82158
107.84789
103.32126
99.162752
95.32729
91.807701
88.521341
85.498649
82.666756
80.033938
77.576372
75.269649
73.107941
71.090477
69.15664
67.399684
65.650171
64.110232
62.534986
61.158937
59.761417
58.499232
57.281171
56.118456
55.030928
53.991931
53.002382
52.067206
51.168591
50.341028
49.497705
48.765794
48.00371
47.348231
46.664637
46.022738
45.447111
44.879019
44.216974
43.606582
43.173103
42.474241
41.317082
41.235626
41.367601
41.658847
42.057482
42.570757
43.193943
43.940943
44.798623
45.775564
46.863388
48.078932
49.43551
51.101812
53.047178
54.975734
57.262835
62.026234
70.783603
82.085418
93.066644
101.77364
107.48246
109.49419
108.68592
104.27209
96.442674
88.674208
83.487894
80.273455
77.687965
75.345295
73.046887
70.83603
68.643685
66.500104
64.284677
62.16505
60.055577
58.22273
56.119805
54.660521
52.580009
367.89077
320.0482
283.09014
253.70983
229.81473
210.00848
193.33213
179.1028
166.82212
156.11907
146.7072
138.37773
130.93446
124.28325
118.24713
112.82241
107.83525
103.32309
99.147935
95.327973
91.793679
88.516008
85.489283
82.652514
80.02819
77.559331
75.258044
73.097632
71.065457
69.159218
67.359533
65.664212
64.061236
62.551145
61.114371
59.763296
58.473321
57.259856
56.105551
55.005702
53.971882
52.982113
52.040195
51.159751
50.29916
49.50386
48.715512
47.987022
47.321773
46.642305
46.002083
45.439334
44.895117
44.263056
43.666511
43.244436
42.553469
41.403992
41.409327
41.613738
41.988665
42.498133
43.15072
43.931264
44.828785
45.826416
46.903933
48.071099
49.376541
50.826626
52.487287
54.36422
56.185662
58.137206
62.250606
70.105361
80.827189
91.585305
100.39495
106.45844
109.37653
109.29833
106.7121
100.23062
91.851222
85.115174
80.683756
77.879038
75.43003
73.155163
70.925915
68.887586
66.817197
64.550324
62.44746
60.267554
58.450224
56.314671
54.795554
52.840804
367.89069
320.04805
283.08966
253.7104
229.81264
210.01072
193.32751
179.10663
166.81581
156.122
146.70251
138.3752
130.93517
124.273
118.25297
112.8073
107.84098
103.30884
99.149088
95.316606
91.790114
88.50658
85.482244
82.642588
80.019588
77.548097
75.248836
73.083655
71.055188
69.143585
67.345821
65.646137
64.046329
62.526966
61.096698
59.735756
58.450223
57.232283
56.073501
54.97752
53.937828
52.948111
52.012787
51.121344
50.288432
49.489121
48.7242
48.00189
47.346661
46.665748
46.040603
45.470391
44.911825
44.293636
43.712239
43.268202
42.582015
41.435658
41.489134
41.786735
42.283589
42.945724
43.762024
44.700774
45.734846
46.843075
48.007629
49.268517
50.685532
52.234272
53.89885
55.718771
57.463375
59.192076
62.606024
69.505919
79.585649
90.117933
99.115766
105.53459
109.30086
109.76386
108.32651
103.54333
95.616393
87.56491
81.74577
78.13079
75.708125
73.265719
71.036889
69.102548
67.050434
64.762934
62.709326
60.624543
58.666676
56.467282
55.079351
52.943338
367.89026
320.04882
283.0893
253.71005
229.81234
210.00942
193.3263
179.10567
166.81232
156.1222
146.69687
138.37551
130.92902
124.27092
118.24745
112.80236
107.83439
103.30365
99.137539
95.315472
91.771263
88.508869
85.460228
82.643668
79.998795
77.541812
75.233462
73.069569
71.041262
69.125815
67.329882
65.625809
64.030147
62.502194
61.081568
59.709821
58.430027
57.210107
56.046333
54.951675
53.915105
52.909463
51.987493
51.080581
50.24307
49.441485
48.679977
47.957611
47.302582
46.618216
46.009137
45.471151
44.885693
44.246365
43.741109
43.315781
42.223414
41.345546
41.589703
42.053612
42.717309
43.549098
44.520565
45.58805
46.725368
47.912186
49.156952
50.531486
52.050481
53.676007
55.364773
57.122724
58.828166
60.498448
63.283495
69.158932
78.38018
88.621216
97.763124
104.58015
109.18447
110.11659
109.33547
106.05766
99.413926
90.789752
83.475363
78.917926
75.886725
73.46526
71.169096
69.40024
67.322777
64.965117
62.984795
61.181894
58.999202
56.684275
55.149618
52.993715
367.89038
320.04831
283.09022
253.70837
229.81464
210.00551
193.3305
179.09924
166.81762
156.11459
146.70054
138.36916
130.92847
124.26716
118.24275
112.79951
107.82812
103.29877
99.131708
95.307248
91.765829
88.498597
85.452191
82.634226
79.986879
77.534089
75.217177
73.062347
71.022916
69.117532
67.308969
65.618133
64.004179
62.497519
61.050891
59.704773
58.403103
57.194792
56.030354
54.929705
53.895652
52.901394
51.961932
51.076823
50.23208
49.421318
48.667286
47.965459
47.270643
46.598922
46.01939
45.427383
44.776501
44.206627
43.79742
42.944023
41.7962
41.839973
42.205055
42.81534
43.607964
44.533801
45.567909
46.681788
47.858915
49.086499
50.407424
51.882255
53.485054
55.169304
56.881435
58.600811
60.275573
61.916515
64.247423
69.13578
77.275831
87.100652
96.243507
103.38503
108.38633
110.28502
109.94592
107.77583
102.56491
94.428619
85.994721
79.981619
76.105587
73.552078
71.361005
69.537869
67.43631
65.103611
63.291242
61.268671
59.117226
56.924275
55.273521
53.165657
367.89081
320.04792
283.08987
253.70783
229.81382
210.00391
193.33021
179.09564
166.81833
156.1091
146.70173
138.36234
130.92978
124.25883
118.24378
112.79034
107.82743
103.29019
99.127725
95.299169
91.759363
88.489567
85.444857
82.622428
79.979388
77.520335
75.207363
73.049084
71.009828
69.103375
67.295638
65.599944
63.991926
62.47564
61.037546
59.68141
58.387789
57.171229
56.008595
54.912182
53.869243
52.875905
51.943904
51.049329
50.208124
49.399483
48.66108
47.927023
47.222128
46.593833
46.003508
45.287225
44.652905
44.207705
43.394237
42.160588
42.195257
42.51327
43.048175
43.746741
44.580984
45.533898
46.597061
47.759505
48.995289
50.297592
51.729387
53.307339
54.990102
56.72566
58.46092
60.166143
61.828408
63.46026
65.499984
69.439331
76.402891
85.595367
94.645901
101.99583
107.27362
110.0748
110.22105
108.80348
104.88056
97.9463
88.971137
81.735401
76.885875
73.931698
71.633904
69.676505
67.574657
65.262465
63.317626
61.286478
59.194916
57.152274
55.434162
53.28253
367.88993
320.04886
283.08832
253.70908
229.81159
210.00528
193.32746
179.09669
166.81555
156.10892
146.69957
138.35996
130.9283
124.25442
118.2418
112.78479
107.82371
103.28395
99.121471
95.292787
91.748625
88.4835
85.429535
82.615342
79.960441
77.510545
75.185357
73.03549
70.98467
69.085449
67.26712
65.576848
63.962887
62.447705
61.006
59.650948
58.354314
57.135309
55.973668
54.877441
53.822252
52.837473
51.906229
50.995957
50.147998
49.364879
48.604775
47.835978
47.16315
46.567412
45.882335
45.160104
44.619787
44.168407
43.032954
42.127645
42.465996
42.934653
43.530246
44.289594
45.201718
46.262876
47.458463
48.77258
50.153205
51.599554
53.1659
54.84774
56.600184
58.372247
60.12601
61.832084
63.497739
65.134837
66.977245
70.126979
75.875457
84.175527
93.01192
100.53087
106.00482
109.4622
110.09685
109.23974
106.38149
100.81747
92.163378
83.809563
77.940676
74.352384
71.82989
69.755492
67.902217
65.507346
63.265623
61.169156
59.264505
57.383956
55.887984
53.50957
367.89002
320.04892
283.08819
253.7087
229.81071
210.00465
193.32549
179.09585
166.81275
156.1072
146.69664
138.35659
130.92531
124.24925
118.23821
112.77824
107.81854
103.27677
99.113877
95.285425
91.738496
88.47583
85.416969
82.607083
79.946086
77.501219
75.170118
73.024118
70.969986
69.071169
67.253517
65.561351
63.944692
62.435562
60.985029
59.636113
58.331571
57.120084
55.947167
54.861024
53.788196
52.825916
51.861585
50.972266
50.1087
49.343429
48.540496
47.810151
47.125647
46.533804
45.804888
45.120834
44.638486
43.959073
42.6548
42.514382
42.743196
43.223517
43.915478
44.815966
45.892924
47.139177
48.52804
50.0334
51.577311
53.159275
54.827429
56.572665
58.3607
60.140978
61.903262
63.616853
65.291191
66.925736
68.629505
71.13276
75.740487
82.936859
91.320321
98.919674
104.64163
108.27616
109.62827
109.19381
107.16226
102.78232
95.189065
86.171464
79.283066
74.954978
72.249421
70.016458
67.960189
65.657163
63.466164
61.34462
59.561921
57.44996
55.918953
53.832033
367.88964
320.04919
283.08824
253.70855
229.811
210.00387
193.32572
179.09462
166.81236
156.10575
146.69501
138.35489
130.9223
124.24672
118.23426
112.77352
107.81522
103.26759
99.113365
95.27074
91.740392
88.457581
85.419665
82.586393
79.949067
77.478554
75.172888
73.000728
70.9715
69.047271
67.252176
65.540055
63.937032
62.413148
60.976162
59.608375
58.318966
57.085594
55.927644
54.813749
53.762571
52.769903
51.821093
50.901514
50.072388
49.269304
48.4963
47.738589
47.124202
46.477193
45.743128
45.107047
44.667469
43.771271
42.542763
42.605517
42.969325
43.596984
44.461651
45.554881
46.836226
48.29988
49.904956
51.607051
53.309077
54.991636
56.7156
58.476294
60.269424
62.031872
63.79833
65.51987
67.192179
68.792835
70.359512
72.357824
75.94187
81.957298
89.633914
97.141782
103.09041
107.03272
108.79499
108.78286
107.36122
103.9234
97.605626
88.660109
80.85583
75.535977
72.276858
69.990314
67.915675
65.775542
63.665347
61.598443
59.943195
57.423682
55.939845
53.781484
367.89016
320.0487
283.08839
253.70715
229.81105
210.00126
193.32572
179.09099
166.81193
156.10167
146.69333
138.351
130.91825
124.24343
118.22716
112.77068
107.80485
103.26477
99.09985
95.266426
91.725821
88.449255
85.405239
82.574229
79.933753
77.463491
75.155661
72.983354
70.951523
69.028263
67.229738
65.517417
63.913335
62.387617
60.947655
59.577181
58.289443
57.047092
55.882732
54.762956
53.700936
52.711249
51.747477
50.841628
49.99969
49.212752
48.407281
47.706002
47.098648
46.420195
45.67734
45.096241
44.642065
43.419228
42.509331
42.730971
43.27029
44.075475
45.127864
46.429032
47.940244
49.639408
51.475407
53.375104
55.237966
57.003066
58.762498
60.512217
62.300126
64.028936
65.810264
67.525743
69.161365
70.680175
72.071583
73.660825
76.356994
81.21855
88.021209
95.236489
101.31449
105.52588
107.73274
108.00034
107.0932
104.40314
99.266797
90.962513
82.453131
76.41307
72.574631
70.293578
68.14639
66.070504
63.884354
62.011533
59.998321
57.637211
55.949825
54.05202
367.89013
320.04822
283.08803
253.70706
229.8101
210.00136
193.32434
179.09078
166.81043
156.10044
146.69186
138.34821
130.91652
124.23899
118.22443
112.76492
107.80032
103.25781
99.093448
95.257777
91.717884
88.438588
85.395677
82.561819
79.922113
77.449733
75.141791
72.968182
70.935686
69.011821
67.211562
65.499881
63.894641
62.365626
60.931967
59.554148
58.267175
57.036384
55.863776
54.740847
53.690702
52.682373
51.73239
50.818427
49.999088
49.172282
48.390225
47.691924
47.078388
46.345604
45.606591
45.13633
44.523845
43.093007
42.770459
43.032607
43.686082
44.648147
45.890991
47.427868
49.203994
51.164313
53.240892
55.33972
57.357321
59.192806
60.951289
62.667287
64.423797
66.113968
67.896392
69.559419
71.108386
72.506257
73.648477
74.837469
76.790307
80.615839
86.487262
93.250582
99.337719
103.79044
106.39429
106.9228
106.46502
104.33635
100.17637
92.764949
84.098918
77.431232
72.995091
70.677091
68.430625
66.315373
64.197971
62.294233
60.331022
57.997684
56.407342
54.148401
367.89052
320.04797
283.08803
253.7065
229.80924
210.00056
193.32237
179.08985
166.80708
156.09943
146.68694
138.3467
130.91025
124.23615
118.21723
112.76008
107.79214
103.25097
99.083734
95.249223
91.706301
88.428311
85.38213
82.550042
79.906032
77.436903
75.123181
72.953794
70.915192
68.995826
67.189309
65.48183
63.87221
62.345796
60.908615
59.537272
58.245973
57.023332
55.857565
54.752978
53.700188
52.711032
51.754446
50.861198
50.026339
49.214409
48.407391
47.724989
47.062087
46.294781
45.594752
45.084849
44.310757
42.957839
42.794408
43.157454
43.974928
45.137104
46.636838
48.462775
50.547275
52.785238
55.090499
57.36949
59.51371
61.426944
63.169076
64.869426
66.562083
68.250027
69.967664
71.584975
72.998479
74.204032
74.931079
75.667491
77.061044
80.0356
85.012167
91.223529
97.2034
101.83
104.68353
105.6357
105.40193
103.90801
100.49133
93.938439
85.607263
78.465777
73.672875
70.910454
68.706941
66.47584
64.657366
62.496241
60.639684
58.391881
56.639267
54.581937
367.88999
320.04836
283.08789
253.7067
229.80899
210.00042
193.32162
179.08936
166.80551
156.09828
146.68432
138.34437
130.90639
124.23211
118.2121
112.754
107.78578
103.24286
99.075818
95.239269
91.696549
88.41631
85.370494
82.535892
79.892234
77.42059
75.107016
72.93534
70.895826
68.975882
67.166414
65.458866
63.845836
62.321105
60.873729
59.508616
58.208657
56.980329
55.806654
54.705199
53.6528
52.653795
51.702965
50.825184
49.975795
49.147065
48.387296
47.703988
46.999801
46.196835
45.554933
45.092131
44.093926
42.805186
42.786931
43.359942
44.38998
45.799053
47.587734
49.698492
52.070658
54.554264
57.048203
59.473804
61.710542
63.697477
65.427565
67.090707
68.684432
70.370767
71.97225
73.466416
74.626198
75.506846
75.584839
76.154796
77.139887
79.41485
83.583284
89.192114
94.96075
99.683237
102.80202
104.10873
104.10059
103.1051
100.23798
94.507702
86.887039
79.552241
74.327834
71.437761
69.078918
66.742178
64.875128
62.67594
61.013983
58.854248
57.124268
54.714849
367.89009
320.04869
283.08748
253.70604
229.8083
209.99844
193.32077
179.08602
166.80444
156.09366
146.68281
138.33859
130.90405
124.22537
118.20848
112.74604
107.78038
103.2332
99.068315
95.227735
91.686496
88.403153
85.357702
82.520879
79.877056
77.403485
75.089432
72.916018
70.876038
68.95411
67.144295
65.434585
63.822469
62.292155
60.849935
59.476846
58.182368
56.94485
55.77942
54.670292
53.618166
52.61203
51.668214
50.778317
49.917429
49.083992
48.330464
47.646045
46.872641
46.086614
45.504768
45.05974
43.76743
42.6759
42.863777
43.654308
44.888777
46.545165
48.595163
50.972465
53.590108
56.298867
58.969884
61.509799
63.834137
65.880296
67.622427
69.21873
70.698448
72.352467
73.771121
74.99559
75.978144
76.133073
76.345545
76.46011
77.038571
78.728982
82.192087
87.191876
92.667178
97.405127
100.71657
102.37458
102.58363
101.95734
99.752605
94.677978
87.957662
80.411593
75.245796
71.726415
69.23395
67.003262
65.072663
62.901996
61.241697
58.906105
57.145718
54.653141
367.88908
320.04949
283.08587
253.70716
229.80611
209.99958
193.31796
179.08713
166.80064
156.09476
146.6776
138.33917
130.89735
124.22435
118.20023
112.74325
107.76996
103.22884
99.05537
95.221649
91.671077
88.39481
85.34049
82.509053
79.85938
77.38724
75.071263
72.896448
70.855588
68.932908
67.119974
65.413118
63.793242
62.270043
60.816864
59.452273
58.145703
56.916478
55.739389
54.637043
53.572601
52.570447
51.620655
50.728975
49.854083
49.018983
48.280039
47.555848
46.765307
45.989886
45.462323
44.871363
43.560336
42.632076
42.949607
43.931431
45.377629
47.291872
49.585288
52.235896
55.086129
58.012094
60.859727
63.479179
65.881509
67.955211
69.700498
71.176282
72.609974
74.056204
75.371801
76.057571
76.766037
76.844082
76.973168
76.576358
76.768139
77.981001
80.834607
85.252633
90.378568
95.051376
98.497824
100.42402
100.90699
100.55717
98.947438
94.661258
88.615197
80.989816
76.216472
72.469376
69.717257
67.165558
65.12483
62.980655
61.380565
58.880009
57.514933
55.032443
367.88916
320.04977
283.08555
253.70653
229.80548
209.99762
193.31708
179.08387
166.79899
156.09077
146.67425
138.33468
130.89197
124.21899
118.19287
112.73616
107.76089
103.21948
99.044529
95.209819
91.658319
88.380462
85.325597
82.492056
79.842585
77.366967
75.053094
72.87251
70.835903
68.905023
67.099026
65.380331
63.771038
62.233119
60.790656
59.413481
58.11436
56.872463
55.705201
54.588127
53.528894
52.516835
51.572289
50.668244
49.781093
48.960467
48.201715
47.472268
46.648292
45.898335
45.402573
44.710678
43.402263
42.564659
43.052712
44.224084
45.875329
47.981936
50.526611
53.424225
56.509307
59.632464
62.634221
65.340118
67.813518
69.932576
71.654791
73.005627
74.289781
75.427725
76.554514
76.755088
77.460346
77.370175
77.230685
76.357981
76.290724
77.138096
79.489867
83.395951
88.147743
92.682646
96.193659
98.335504
99.081526
98.945896
97.860979
94.384153
88.426797
81.351002
76.35848
72.548719
69.729143
67.435597
65.437586
63.35784
61.702402
59.344543
58.147805
55.715027
367.88967
320.04839
283.08673
253.70513
229.8063
209.99614
193.3172
179.08181
166.79856
156.08738
146.67321
138.32973
130.88949
124.21256
118.1883
112.72798
107.75423
103.20875
99.036177
95.195834
91.648139
88.363702
85.312083
82.474163
79.824031
77.348599
75.029903
72.852373
70.809371
68.882551
67.068448
65.356372
63.73622
62.206294
60.752266
59.384638
58.068462
56.841846
55.654085
54.549264
53.472025
52.466374
51.515651
50.596131
49.712415
48.884763
48.12091
47.372513
46.531833
45.810674
45.312605
44.553244
43.074675
42.633136
43.136972
44.408585
46.21346
48.50875
51.327098
54.486374
57.834301
61.179413
64.333607
67.147742
69.602002
71.582039
73.140699
74.296089
75.326749
76.306584
77.216807
77.649178
77.728965
77.718934
77.048956
75.823654
75.620984
76.215127
78.189234
81.652728
86.023964
90.358997
93.864106
96.14698
97.138612
97.178742
96.479228
93.791305
88.178201
81.662815
76.245596
72.447002
69.716992
67.535435
65.632535
63.676158
62.109952
60.123209
59.051897
56.650363
367.89052
320.04774
283.08674
253.70391
229.80509
209.99447
193.31458
179.07951
166.79469
156.08398
146.66808
138.32505
130.8827
124.20664
118.17916
112.72086
107.74231
103.2
99.021821
95.184263
91.632232
88.348412
85.294623
82.455662
79.804052
77.327307
75.007819
72.826747
70.787158
68.850975
67.046001
65.319936
63.711613
62.164588
60.726234
59.337208
58.036334
56.792798
55.611978
54.496405
53.415709
52.411778
51.44953
50.520714
49.647117
48.79346
48.046474
47.265162
46.410032
45.720449
45.219747
44.359823
42.884544
42.55281
43.199742
44.591716
46.532112
49.090641
52.218607
55.702288
59.346646
62.994914
66.263356
69.254947
71.812961
73.072047
74.129323
74.974282
75.862631
76.771513
77.703761
77.77159
77.971399
77.813937
76.438293
75.000625
74.722948
75.220577
76.956149
80.050488
84.048734
88.134031
91.561325
93.916859
95.109155
95.294272
94.851104
92.793464
88.301505
82.001611
76.641262
72.875404
70.240624
68.221971
66.469088
64.635447
63.113835
61.237102
60.202428
57.778382
367.88956
320.04817
283.08543
253.70435
229.80338
209.99441
193.31257
179.07826
166.79264
156.08088
146.66583
138.3197
130.87974
124.19889
118.17472
112.71095
107.73514
103.18896
99.01012
95.17323
91.615078
88.336832
85.27323
82.441162
79.780582
77.308203
74.982161
72.804601
70.756802
68.827502
67.010721
65.293622
63.673371
62.131755
60.689212
59.293003
58.000289
56.741794
55.569814
54.440826
53.364677
52.35206
51.386837
50.452733
49.564852
48.723094
47.95814
47.151147
46.278308
45.627948
45.126647
44.035778
42.699031
42.642489
43.316598
44.866962
46.954851
49.929914
53.506309
57.418789
61.432603
65.49078
68.871321
72.113251
72.561958
72.962733
74.289996
75.320197
76.154545
77.218628
77.905487
78.042529
78.082079
77.220539
75.449787
73.9547
73.67033
74.208467
75.818599
78.610475
82.251228
86.049389
89.332089
91.697794
93.020506
93.370782
93.098705
91.433276
87.427428
81.981629
77.047244
73.512922
71.032849
69.179895
67.6013
65.911229
64.445794
62.632847
61.588212
59.081564
367.89011
320.04781
283.08519
253.70344
229.80168
209.99335
193.30871
179.07734
166.78643
156.07941
146.65815
138.31604
130.87163
124.19168
118.16672
112.69914
107.7277
103.17148
99.003331
95.150085
91.607447
88.309997
85.261638
82.413463
79.762705
77.280096
74.959106
72.77419
70.72943
68.796356
66.975026
65.267539
63.623646
62.112278
60.628343
59.267914
57.941432
56.701993
55.518484
54.380871
53.319065
52.282435
51.322276
50.388621
49.468552
48.661645
47.86646
47.010111
46.158653
45.556939
44.999106
43.783988
42.570381
42.70425
43.527037
45.37931
47.923528
51.593936
55.941421
60.363192
65.018873
69.238233
73.004053
74.718897
75.438106
75.620702
75.711358
76.509447
77.346713
77.452946
78.187546
78.192618
77.898066
76.06119
74.11659
72.774947
72.634708
73.269156
74.809694
77.350669
80.649434
84.132869
87.215514
89.525809
90.926639
91.41966
91.278709
89.943747
86.500213
81.837393
77.506981
74.349583
72.102848
70.40645
68.977231
67.426006
66.033852
64.280914
63.205983
60.578709
367.88897
320.04864
283.08427
253.70394
229.80077
209.9928
193.30741
179.07591
166.78349
156.07769
146.65259
138.31357
130.86381
124.18697
118.1574
112.69108
107.71711
103.15932
98.991727
95.132903
91.595077
88.287612
85.246827
82.388555
79.741721
77.255148
74.932365
72.745655
70.702144
68.760227
66.947328
65.229587
63.586016
62.081354
60.57837
59.238289
57.883087
56.670247
55.446545
54.344054
53.24335
52.221101
51.254389
50.292704
49.394208
48.572766
47.751437
46.851766
46.074162
45.468115
44.833057
43.530513
42.55995
42.706153
43.802157
46.433966
50.013419
54.883966
60.132363
65.254979
70.251301
74.441995
77.15694
78.598093
79.457567
79.548621
79.536514
78.34088
78.111516
78.030866
78.117774
78.048279
76.608398
74.360979
72.504624
71.602613
71.752837
72.490953
73.9742
76.291928
79.25711
82.403758
85.239715
87.436547
88.864062
89.472718
89.45082
88.45745
85.550219
81.602088
77.909615
75.199315
73.257569
71.756779
70.478072
69.07705
67.782829
66.119161
65.019618
62.270351
367.88993
320.04819
283.08405
253.70303
229.79931
209.99112
193.30473
179.07293
166.77961
156.07332
146.64689
138.30819
130.85557
124.18003
118.14698
112.68115
107.70475
103.14611
98.97659
95.116554
91.577006
88.267254
85.226328
82.3639
79.71754
77.227959
74.902272
72.716129
70.669382
68.721735
66.921194
65.173831
63.570335
62.0129
60.561344
59.167113
57.858439
56.593046
55.410481
54.266788
53.183761
52.153817
51.1613
50.218767
49.299687
48.492909
47.607867
46.780646
46.005489
45.452898
44.56606
43.405926
42.64653
43.048196
45.096987
49.208469
54.657807
60.803209
67.0039
72.638743
77.566043
81.074116
82.17852
82.69082
83.259737
83.221523
81.516679
79.878076
78.973734
78.480383
77.916102
76.657621
74.389207
72.260499
70.865967
70.743888
71.097534
71.934703
73.351833
75.451419
78.083469
80.874284
83.42491
85.459062
86.857415
87.566362
87.652674
86.986752
84.624403
81.384674
78.356764
76.056361
74.391601
73.098646
71.99049
70.76263
69.587591
68.049136
66.944314
64.118711
367.89028
320.04641
283.08537
253.70088
229.8007
209.98847
193.30562
179.06904
166.78002
156.06759
146.64596
138.30121
130.8517
124.17228
118.13956
112.67197
107.69353
103.13593
98.959053
95.10798
91.55055
88.259743
85.194142
82.351346
79.685419
77.206553
74.870229
72.689623
70.631453
68.696014
66.8756
65.145155
63.525407
61.973605
60.518365
59.12055
57.812806
56.539574
55.361715
54.20361
53.127728
52.082205
51.085621
50.143544
49.232254
48.400662
47.533755
46.733752
46.037745
45.330275
44.342984
43.344154
43.448993
44.929472
49.487093
55.838666
63.264921
70.381046
76.71366
82.182309
85.235501
86.533261
87.482421
87.596533
86.920357
84.445523
81.281558
78.568837
76.962732
76.106744
75.179171
73.680968
71.75352
70.260601
69.882728
70.110153
70.709968
71.63151
72.965596
74.836412
77.132478
79.55358
81.787218
83.614976
84.936076
85.716537
85.903727
85.534538
83.752938
81.245409
78.767399
77.038088
75.691238
74.535061
73.492727
72.396558
71.353631
69.972614
68.881247
66.043891
367.89133
320.04554
283.08668
253.69933
229.80096
209.98662
193.30389
179.06636
166.77688
156.06253
146.64201
138.29341
130.84518
124.16364
118.12778
112.66314
107.67672
103.12394
98.939842
95.091381
91.527639
88.240574
85.165367
82.329762
79.651369
77.180627
74.832817
72.657501
70.591441
68.659369
66.830058
65.106825
63.472979
61.931624
60.460607
59.076043
57.750277
56.490662
55.301199
54.146959
53.068313
52.021494
51.005003
50.071974
49.176753
48.295933
47.515634
46.724397
46.060181
45.068996
44.188699
44.442095
46.237618
51.446734
59.406004
67.915245
76.298515
82.802439
88.177004
91.355127
91.629492
92.748349
92.50904
91.434235
87.857391
82.1234
77.274545
73.914873
72.504469
72.019644
71.659872
70.846416
69.530175
69.142153
69.288385
69.756929
70.517335
71.48833
72.750319
74.403822
76.382091
78.43575
80.333873
81.920234
83.123595
83.918222
84.235034
84.084537
82.863009
80.878108
79.056288
77.62434
76.730075
75.895181
75.026287
74.012057
73.033704
71.803016
70.751628
67.958572
367.89123
320.04503
283.08779
253.69882
229.80211
209.98555
193.3043
179.06439
166.7761
156.05861
146.64063
138.28605
130.84259
124.15389
118.12076
112.65349
107.66378
103.1138
98.922639
95.077145
91.509159
88.218881
85.146651
82.300431
79.630502
77.14671
74.804415
72.624609
70.551715
68.627821
66.782693
65.069384
63.430874
61.876823
60.430044
59.00229
57.710084
56.428037
55.222439
54.101116
52.983063
51.956202
50.980773