/*--------------------------------*- C++ -*----------------------------------*\
| =========                 |                                                 |
| \\      /  F ield         | OpenFOAM: The Open Source CFD Toolbox           |
|  \\    /   O peration     | Version:  2406                                  |
|   \\  /    A nd           | Website:  www.openfoam.com                      |
|    \\/     M anipulation  |                                                 |
\*---------------------------------------------------------------------------*/
FoamFile
{
    version     2.0;
    format      ascii;
    arch        "LSB;label=32;scalar=64";
    class       volScalarField;
    location    "300";
    object      p;
}
// * * * * * * * * * * * * * * * * * * * * * * * * * * * * * * * * * * * * * //

dimensions      [0 2 -2 0 0 0 0];

internalField   nonuniform List<scalar> 
16045
(
-418.49904
-418.56342
-418.66548
-418.8224
-419.05564
-419.36953
-419.75879
-420.21225
-420.71981
-421.28022
-421.90104
-422.58787
-423.33969
-424.15357
-425.03233
-425.97818
-426.98229
-428.02434
-429.09454
-430.21428
-431.44001
-432.82111
-434.343
-435.92308
-437.47987
-438.96401
-440.42998
-442.08322
-444.01854
-446.03745
-448.01434
-450.17457
-452.72235
-455.39089
-457.69151
-459.54067
-461.43368
-463.94856
-467.19105
-470.74208
-474.0816
-477.02123
-479.81031
-482.88886
-486.52956
-490.66225
-494.993
-499.22498
-503.21992
-507.03292
-510.84527
-514.86253
-519.21317
-523.89334
-528.78624
-533.73668
-538.60873
-543.32736
-547.89888
-552.37801
-556.79447
-561.12579
-565.26286
-569.09163
-572.48164
-575.30404
-577.59011
-579.45616
-580.91625
-581.79305
-581.91909
-581.3957
-580.30403
-578.73921
-576.12851
-567.41939
-542.6302
-494.80426
-423.70374
-342.79283
-269.38462
-211.38011
-168.64315
-137.81982
-115.4057
-98.696732
-85.785205
-75.358779
-66.515077
-58.645392
-51.353543
-44.412051
-37.704325
-31.183007
-24.852857
-18.821355
-13.047982
-8.2961665
-2.684355
-5.416405
-418.42595
-418.45739
-418.53327
-418.67527
-418.89453
-419.19414
-419.56967
-420.00991
-420.50359
-421.05012
-421.65692
-422.33015
-423.06773
-423.86715
-424.73037
-425.66055
-426.64776
-427.67222
-428.72216
-429.82164
-431.02974
-432.40152
-433.92241
-435.50162
-437.03441
-438.4764
-439.92276
-441.57798
-443.47776
-445.42966
-447.37644
-449.56093
-452.11689
-454.7262
-456.92389
-458.69632
-460.57365
-463.112
-466.36385
-469.87903
-473.14008
-475.99386
-478.71303
-481.73635
-485.32091
-489.38715
-493.63141
-497.75852
-501.63232
-505.32132
-509.01244
-512.8992
-517.09284
-521.5791
-526.22842
-530.8852
-535.42407
-539.76185
-543.90279
-547.87311
-551.68746
-555.30479
-558.62089
-561.48957
-563.76263
-565.27572
-565.99388
-565.88293
-564.88667
-562.8023
-559.49037
-554.89332
-548.9561
-541.64952
-531.77591
-513.48696
-477.74544
-423.04638
-360.61086
-303.51984
-258.32989
-224.75962
-199.52838
-179.43729
-162.42269
-147.38884
-133.73896
-121.11438
-109.26269
-97.998944
-87.199748
-76.809107
-66.804424
-57.189841
-47.975444
-39.214623
-30.84381
-23.246555
-14.611904
-11.194353
-418.29697
-418.32004
-418.39476
-418.53964
-418.76021
-419.05964
-419.43493
-419.87368
-420.36469
-420.90814
-421.51282
-422.18406
-422.91936
-423.71565
-424.57657
-425.50502
-426.4905
-427.51004
-428.55312
-429.64949
-430.86421
-432.24433
-433.7625
-435.32188
-436.81736
-438.2377
-439.72294
-441.4072
-443.23907
-445.11354
-447.12022
-449.45254
-452.04924
-454.51226
-456.51178
-458.21544
-460.19764
-462.90117
-466.23977
-469.71377
-472.85922
-475.61131
-478.29362
-481.33127
-484.93972
-489.00124
-493.2051
-497.27826
-501.1176
-504.8046
-508.52366
-512.44069
-516.6338
-521.07596
-525.65084
-530.22258
-534.66851
-538.91932
-542.96796
-546.81976
-550.48318
-553.9163
-557.01381
-559.61878
-561.58427
-562.75006
-563.01373
-562.29681
-560.50622
-557.5084
-553.14812
-547.31682
-540.02871
-531.3751
-520.25762
-501.46056
-466.97357
-414.74877
-353.93313
-297.66184
-253.58808
-222.16264
-199.87552
-182.80648
-168.276
-154.94699
-142.25631
-129.98345
-118.04007
-106.37496
-94.976186
-83.87588
-73.111952
-62.719393
-52.714978
-43.126138
-33.852543
-25.19881
-15.280016
-11.262215
-418.12027
-418.14143
-418.20893
-418.34541
-418.55694
-418.84619
-419.20976
-419.63533
-420.11236
-420.64245
-421.23456
-421.89314
-422.61469
-423.39698
-424.24466
-425.16037
-426.13041
-427.1292
-428.14962
-429.23025
-430.43744
-431.81025
-433.31745
-434.85741
-436.32947
-437.75745
-439.26106
-440.8858
-442.59548
-444.44607
-446.59535
-449.06556
-451.58064
-453.76257
-455.52293
-457.22619
-459.40532
-462.30205
-465.67257
-469.01459
-471.97539
-474.60659
-477.26894
-480.33928
-483.95396
-487.95233
-492.03761
-495.98686
-499.73996
-503.38938
-507.09995
-511.00118
-515.13443
-519.45896
-523.87362
-528.26023
-532.51364
-536.56882
-540.40033
-543.99732
-547.36368
-550.46041
-553.17878
-555.3539
-556.83238
-557.45366
-557.09819
-555.65235
-552.98163
-548.99734
-543.60489
-536.71846
-528.45179
-519.07316
-507.71734
-490.30428
-460.32307
-414.66234
-358.44898
-302.51258
-255.6374
-220.84692
-196.47299
-178.95919
-165.06571
-152.78458
-141.14031
-129.72817
-118.41027
-107.11649
-95.856278
-84.720531
-73.792511
-63.131033
-52.777291
-42.765068
-33.013081
-23.894407
-13.590956
-10.345511
-417.89945
-417.91804
-417.9812
-418.1144
-418.32301
-418.60796
-418.96587
-419.38535
-419.85691
-420.38234
-420.96997
-421.62307
-422.33831
-423.1148
-423.95847
-424.87025
-425.83251
-426.81875
-427.82909
-428.91119
-430.13107
-431.51508
-433.01414
-434.51686
-435.9586
-437.38741
-438.86656
-440.41569
-442.09953
-444.06038
-446.36626
-448.84607
-451.1582
-453.08152
-454.75251
-456.59992
-459.01006
-462.02607
-465.32935
-468.49562
-471.31001
-473.90667
-476.62924
-479.76782
-483.38262
-487.29846
-491.26084
-495.10795
-498.81954
-502.48932
-506.24813
-510.18642
-514.31494
-518.58437
-522.90799
-527.18983
-531.34201
-535.29311
-538.99854
-542.44601
-545.63362
-548.52239
-550.99653
-552.89005
-554.02335
-554.2366
-553.39065
-551.33248
-547.88788
-542.9663
-536.48935
-528.41567
-518.87831
-508.13827
-495.44036
-477.78823
-450.48779
-410.65936
-360.91929
-309.08735
-263.06909
-226.92372
-200.77116
-182.16291
-168.03641
-155.99979
-144.71306
-133.57666
-122.38737
-111.06404
-99.600991
-88.12854
-76.76883
-65.603859
-54.694899
-44.114943
-33.808105
-24.227002
-13.494305
-10.498835
-417.63532
-417.65385
-417.71418
-417.84345
-418.04669
-418.32431
-418.67335
-419.08338
-419.54536
-420.06085
-420.63739
-421.27795
-421.9801
-422.74479
-423.57823
-424.47811
-425.42297
-426.3891
-427.38451
-428.46173
-429.68276
-431.05929
-432.52306
-433.98068
-435.408
-436.83354
-438.28172
-439.81338
-441.55889
-443.6182
-445.92558
-448.24529
-450.33528
-452.14937
-453.90324
-455.93586
-458.46279
-461.42845
-464.55811
-467.55783
-470.31627
-472.97211
-475.79091
-478.97116
-482.53186
-486.32129
-490.14302
-493.88944
-497.56224
-501.23848
-505.01511
-508.95686
-513.05899
-517.26874
-521.50951
-525.70155
-529.76731
-533.62908
-537.23593
-540.57426
-543.63417
-546.366
-548.6543
-550.34893
-551.25271
-551.18564
-549.99589
-547.50431
-543.52463
-537.92649
-530.62528
-521.58852
-510.91596
-498.72299
-484.20965
-465.07638
-438.19495
-401.61722
-357.09938
-310.24823
-267.3708
-232.31514
-206.0831
-187.20404
-173.15012
-161.47234
-150.54784
-139.61845
-128.41347
-116.87932
-105.05238
-93.091369
-81.151205
-69.358341
-57.790655
-46.554169
-35.607415
-25.482815
-14.137906
-11.127513
-417.33053
-417.3469
-417.40628
-417.53213
-417.73067
-418.00273
-418.34511
-418.7475
-419.20139
-419.70853
-420.27625
-420.9075
-421.60058
-422.35763
-423.18425
-424.07524
-425.00812
-425.96243
-426.95127
-428.02807
-429.25015
-430.61827
-432.06074
-433.50349
-434.91897
-436.30989
-437.72795
-439.29099
-441.10883
-443.18145
-445.38104
-447.53215
-449.52867
-451.40362
-453.31788
-455.4687
-457.96983
-460.77967
-463.73133
-466.64617
-469.45168
-472.22913
-475.14553
-478.33027
-481.79975
-485.45269
-489.15517
-492.83506
-496.49499
-500.18282
-503.96974
-507.91043
-512.00064
-516.18561
-520.39025
-524.53959
-528.56447
-532.38864
-535.95889
-539.25322
-542.24646
-544.8821
-547.05699
-548.62729
-549.39409
-549.15308
-547.72488
-544.92533
-540.56409
-534.46426
-526.53711
-516.7446
-505.10477
-491.53841
-475.13965
-454.03178
-426.29839
-391.08974
-350.04152
-307.40601
-268.07212
-235.20731
-209.95919
-191.50273
-177.8596
-166.7911
-156.48931
-145.98262
-134.91246
-123.21465
-111.01984
-98.535231
-85.975033
-73.502886
-61.241931
-49.301734
-37.656896
-26.909667
-14.819758
-11.801459
-416.98436
-417.00188
-417.06005
-417.18268
-417.37673
-417.64287
-417.97737
-418.37026
-418.81398
-419.31094
-419.86835
-420.48871
-421.17061
-421.91703
-422.73297
-423.61209
-424.53159
-425.47141
-426.44744
-427.5159
-428.72969
-430.08103
-431.50431
-432.92813
-434.30557
-435.6535
-437.07896
-438.70692
-440.5686
-442.5887
-444.66076
-446.70989
-448.7104
-450.683
-452.69638
-454.85375
-457.24797
-459.8976
-462.72674
-465.6187
-468.49731
-471.38124
-474.36037
-477.52061
-480.89168
-484.42605
-488.04123
-491.68454
-495.34408
-499.03513
-502.80902
-506.72466
-510.79475
-514.9697
-519.16961
-523.31542
-527.34065
-531.1733
-534.75754
-538.06127
-541.04861
-543.66524
-545.81549
-547.35711
-548.10112
-547.82477
-546.3223
-543.39902
-538.85582
-532.48797
-524.18986
-513.90706
-501.54683
-486.83062
-468.72284
-445.63236
-416.63467
-381.95531
-343.31059
-304.13203
-268.23413
-237.979
-214.19682
-196.43181
-183.18679
-172.6081
-162.90674
-152.8803
-142.0258
-130.21505
-117.63042
-104.57694
-91.333757
-78.114674
-65.091846
-52.389971
-39.981165
-28.533295
-15.600602
-12.52589
-416.60018
-416.61664
-416.67354
-416.79378
-416.98345
-417.24336
-417.56991
-417.95374
-418.38822
-418.87617
-419.42429
-420.03436
-420.70561
-421.44185
-422.24799
-423.11669
-424.02309
-424.948
-425.91239
-426.97605
-428.18539
-429.5267
-430.93618
-432.33532
-433.67745
-435.01363
-436.47431
-438.14311
-439.98624
-441.91872
-443.89498
-445.90945
-447.94836
-449.98577
-452.0307
-454.15798
-456.47289
-459.03223
-461.79823
-464.67225
-467.57634
-470.50407
-473.5087
-476.65008
-479.96221
-483.42964
-487.00298
-490.63572
-494.2964
-497.97633
-501.71572
-505.58824
-509.6354
-513.81992
-518.05285
-522.24131
-526.31503
-530.20472
-533.85238
-537.2179
-540.26136
-542.92869
-545.12953
-546.72814
-547.54664
-547.35481
-545.9264
-543.04878
-538.50864
-532.09737
-523.6675
-513.1194
-500.25253
-484.571
-464.92333
-439.972
-409.59609
-375.05295
-338.30877
-302.18713
-269.6552
-242.31643
-220.42723
-203.56231
-190.60343
-180.15954
-170.70709
-160.93876
-150.1799
-138.20081
-125.16211
-111.45442
-97.430235
-83.373487
-69.480625
-55.92057
-42.657825
-30.434043
-16.555118
-13.328565
-416.17688
-416.1944
-416.24991
-416.36737
-416.55264
-416.80641
-417.12507
-417.49971
-417.92452
-418.40259
-418.94003
-419.53826
-420.19739
-420.92196
-421.71723
-422.57393
-423.46446
-424.37294
-425.32704
-426.38579
-427.5882
-428.91746
-430.30339
-431.66517
-432.97958
-434.32431
-435.81365
-437.48228
-439.27469
-441.13672
-443.07109
-445.08994
-447.15557
-449.20828
-451.24555
-453.35362
-455.64783
-458.18104
-460.90419
-463.7188
-466.56744
-469.463
-472.45892
-475.59911
-478.90514
-482.36632
-485.94249
-489.58206
-493.23776
-496.88969
-500.57836
-504.40025
-508.42684
-512.63451
-516.92553
-521.19196
-525.35645
-529.34956
-533.11264
-536.59739
-539.75937
-542.54572
-544.87572
-546.62248
-547.61708
-547.63856
-546.43832
-543.78073
-539.43088
-533.19483
-524.89532
-514.33853
-501.19211
-484.72722
-463.71958
-437.08572
-405.31098
-370.58303
-335.39892
-302.09876
-272.86652
-248.68763
-229.18363
-213.58497
-200.96295
-190.35655
-180.67882
-170.76075
-159.81042
-147.46359
-133.83789
-119.35378
-104.42558
-89.408248
-74.521629
-59.981323
-45.743572
-32.639091
-17.725599
-14.209834
-415.71711
-415.73236
-415.7883
-415.90332
-416.08406
-416.33161
-416.64212
-417.00705
-417.42164
-417.88943
-418.41599
-419.00271
-419.65001
-420.36312
-421.14748
-421.99148
-422.86664
-423.76113
-424.70647
-425.75855
-426.95297
-428.26813
-429.6247
-430.9511
-432.25333
-433.61783
-435.12776
-436.78416
-438.5322
-440.34946
-442.26245
-444.27472
-446.32509
-448.34747
-450.35982
-452.47378
-454.80174
-457.36052
-460.06162
-462.79998
-465.54911
-468.36364
-471.32049
-474.45935
-477.78509
-481.27653
-484.8849
-488.54627
-492.20089
-495.82414
-499.46625
-503.24712
-507.26168
-511.49762
-515.8567
-520.22057
-524.50598
-528.64278
-532.56812
-536.22488
-539.56463
-542.53787
-545.07641
-547.06736
-548.35034
-548.70882
-547.87623
-545.60204
-541.63929
-535.80021
-527.88832
-517.59708
-504.43459
-487.48585
-465.45964
-437.44338
-404.36584
-369.18267
-335.11425
-304.32657
-278.26683
-257.34696
-240.61542
-226.72677
-214.68107
-203.76863
-193.41497
-182.85233
-171.27973
-158.24111
-143.78966
-128.33769
-112.33611
-96.200733
-80.184325
-64.526342
-49.186797
-35.081185
-19.020396
-15.122892
-415.219
-415.23621
-415.29156
-415.40364
-415.57966
-415.82072
-416.12269
-416.47758
-416.88166
-417.33879
-417.85406
-418.42889
-419.06381
-419.76473
-420.53631
-421.3651
-422.2245
-423.10606
-424.04109
-425.08392
-426.26978
-427.56773
-428.89325
-430.19072
-431.48467
-432.85726
-434.37284
-436.01875
-437.7406
-439.52996
-441.42251
-443.41115
-445.42034
-447.39122
-449.37446
-451.50783
-453.89094
-456.49594
-459.19449
-461.87355
-464.52936
-467.25084
-470.14013
-473.24622
-476.57166
-480.08908
-483.7358
-487.43038
-491.10142
-494.72083
-498.34879
-502.11849
-506.13477
-510.39651
-514.81642
-519.28085
-523.70113
-528.00943
-532.13306
-536.00984
-539.58696
-542.81756
-545.64638
-547.98098
-549.6687
-550.48293
-550.14809
-548.41011
-545.03039
-539.80531
-532.49806
-522.713
-509.80369
-492.73598
-470.18156
-441.32082
-407.32378
-371.65648
-338.24864
-309.52914
-286.41712
-268.68307
-254.88228
-243.07963
-231.94681
-220.78846
-209.44219
-197.70218
-184.99721
-170.8479
-155.25941
-138.59042
-121.30813
-103.85955
-86.533733
-69.599389
-53.021533
-37.785485
-20.477927
-16.046711
-414.68667
-414.70273
-414.75711
-414.86698
-415.03838
-415.27264
-415.56586
-415.91068
-416.30408
-416.75017
-417.2536
-417.81572
-418.43764
-419.12603
-419.88401
-420.697
-421.54106
-422.41
-423.33365
-424.3669
-425.5428
-426.82213
-428.12232
-429.39869
-430.68157
-432.04811
-433.55856
-435.19813
-436.91011
-438.68783
-440.56909
-442.53621
-444.50011
-446.41318
-448.36081
-450.49892
-452.91167
-455.53947
-458.23652
-460.88923
-463.49952
-466.16022
-468.98025
-472.02384
-475.31171
-478.82565
-482.49393
-486.21911
-489.92288
-493.57641
-497.24169
-501.04585
-505.0886
-509.37784
-513.84402
-518.39991
-522.96109
-527.45794
-531.81204
-535.95297
-539.8207
-543.37906
-546.58704
-549.36422
-551.56098
-552.94303
-553.23491
-552.18075
-549.55789
-545.14466
-538.65461
-529.59774
-517.18629
-500.3174
-477.72994
-448.72498
-414.53957
-378.80437
-345.87572
-318.71857
-298.14412
-283.32293
-272.33751
-262.77874
-252.8093
-241.57751
-229.08915
-215.67547
-201.27405
-185.53149
-168.41668
-150.22859
-131.41568
-112.4373
-93.605225
-75.226882
-57.262454
-40.747797
-22.067287
-16.959637
-414.11819
-414.13575
-414.18872
-414.2957
-414.46233
-414.68973
-414.9741
-415.30853
-415.69083
-416.12536
-416.61655
-417.16533
-417.77351
-418.44833
-419.19177
-419.98894
-420.81741
-421.67255
-422.58461
-423.60744
-424.76814
-426.02615
-427.30671
-428.56836
-429.84059
-431.19721
-432.69421
-434.31747
-436.01624
-437.78733
-439.66559
-441.62175
-443.55532
-445.42811
-447.34617
-449.46897
-451.86721
-454.47189
-457.14987
-459.80076
-462.41632
-465.06103
-467.83038
-470.80438
-474.03148
-477.50857
-481.15991
-484.88578
-488.61522
-492.32845
-496.08147
-499.97603
-504.08814
-508.41912
-512.93267
-517.57336
-522.27562
-526.96894
-531.57295
-536.00651
-540.21179
-544.16417
-547.83089
-551.13748
-553.93329
-555.98383
-557.01973
-556.78839
-555.08011
-551.65129
-546.16231
-538.01348
-526.32298
-509.9642
-487.81073
-459.35791
-425.8518
-390.83226
-358.73026
-332.90786
-314.36173
-301.99801
-293.48787
-286.04685
-277.30652
-266.12705
-252.49253
-237.09677
-220.45849
-202.59315
-183.49467
-163.42249
-142.78312
-122.02893
-101.47684
-81.477498
-61.970228
-44.034803
-23.878825
-17.882334
-413.51683
-413.53162
-413.5853
-413.68971
-413.85127
-414.07165
-414.34679
-414.6702
-415.04078
-415.4632
-415.94173
-416.47687
-417.07076
-417.73071
-418.45849
-419.23967
-420.052
-420.8921
-421.79322
-422.80605
-423.94858
-425.18187
-426.44161
-427.69156
-428.96106
-430.3163
-431.79831
-433.39381
-435.0702
-436.83063
-438.69923
-440.64198
-442.5652
-444.43545
-446.35108
-448.45421
-450.80348
-453.34346
-455.9764
-458.62486
-461.26183
-463.91114
-466.64963
-469.57353
-472.74998
-476.1753
-479.76956
-483.44908
-487.17172
-490.94361
-494.8173
-498.85735
-503.09043
-507.50507
-512.08851
-516.81553
-521.65761
-526.55452
-531.42206
-536.17495
-540.75948
-545.16233
-549.36051
-553.27551
-556.75281
-559.56889
-561.46227
-562.19253
-561.55142
-559.26868
-554.9395
-547.8804
-537.15536
-521.66885
-500.44986
-473.21109
-441.19386
-407.75741
-377.18698
-352.8888
-336.01995
-325.58478
-319.03924
-313.28211
-305.55704
-294.37235
-279.56127
-261.98763
-242.67807
-222.14292
-200.55978
-178.19222
-155.39147
-132.58331
-110.08464
-88.278218
-67.0866
-47.593452
-25.854619
-18.789852
-412.87992
-412.89715
-412.95023
-413.05133
-413.20754
-413.42049
-413.68587
-413.99783
-414.35624
-414.76605
-415.23126
-415.75227
-416.33138
-416.97538
-417.68631
-418.4507
-419.24639
-420.07058
-420.9599
-421.96284
-423.0881
-424.29537
-425.5289
-426.76458
-428.03542
-429.395
-430.8658
-432.4374
-434.0957
-435.84226
-437.68226
-439.5885
-441.50049
-443.39443
-445.33861
-447.43458
-449.72561
-452.18351
-454.75492
-457.387
-460.03124
-462.67872
-465.39858
-468.30458
-471.46279
-474.84338
-478.35667
-481.9471
-485.6192
-489.4211
-493.41071
-497.61755
-502.0102
-506.5566
-511.24222
-516.0819
-521.07274
-526.17851
-531.3215
-536.42201
-541.42962
-546.33612
-551.12251
-555.70967
-559.94267
-563.60751
-566.45868
-568.27625
-568.83981
-567.84765
-564.81998
-559.02978
-549.53009
-535.32399
-515.61461
-490.29673
-460.59946
-429.60137
-401.31387
-378.97155
-363.76514
-354.85457
-349.69899
-345
-337.8201
-326.34968
-310.21103
-290.28437
-267.97034
-244.28651
-219.71875
-194.60385
-169.27045
-144.11444
-119.43505
-95.618113
-72.575898
-51.397288
-28.023744
-19.686171
-412.21253
-412.22839
-412.28041
-412.37903
-412.52996
-412.73509
-412.99044
-413.29082
-413.63677
-414.03344
-414.48457
-414.99063
-415.55409
-416.18126
-416.87425
-417.62064
-418.39922
-419.20775
-420.08356
-421.07374
-422.18212
-423.36584
-424.57475
-425.79559
-427.06313
-428.41817
-429.8747
-431.43402
-433.09306
-434.83762
-436.64589
-438.49944
-440.38226
-442.29412
-444.27258
-446.3689
-448.60965
-450.99468
-453.50858
-456.11428
-458.74197
-461.3663
-464.06682
-466.9771
-470.14622
-473.50093
-476.93572
-480.42261
-484.01863
-487.82061
-491.90069
-496.25554
-500.81676
-505.51777
-510.34075
-515.32415
-520.48031
-525.80616
-531.24397
-536.72286
-542.1995
-547.6619
-553.08841
-558.40475
-563.46286
-568.0567
-571.96661
-574.98609
-576.87784
-577.30413
-575.72641
-571.4048
-563.45337
-551.01347
-533.47528
-510.86511
-484.36676
-456.66913
-431.38686
-411.46665
-398.04515
-390.38933
-386.03756
-381.66913
-374.34575
-362.07997
-344.30005
-321.79072
-296.1711
-268.93026
-240.91377
-212.58759
-184.33127
-156.51015
-129.41685
-103.39667
-78.351255
-55.351941
-30.270406
-20.525822
-411.51212
-411.52978
-411.58022
-411.67556
-411.82099
-412.01823
-412.26342
-412.55182
-412.88467
-413.26757
-413.70399
-414.19414
-414.74074
-415.35034
-416.02483
-416.75222
-417.5128
-418.3059
-419.16725
-420.14009
-421.22791
-422.38942
-423.58092
-424.79546
-426.05908
-427.39661
-428.82529
-430.36911
-432.03543
-433.79169
-435.59058
-437.41111
-439.26346
-441.17159
-443.15737
-445.23794
-447.4326
-449.76051
-452.23126
-454.80594
-457.39683
-459.97793
-462.65553
-465.57627
-468.76363
-472.10199
-475.4763
-478.8812
-482.41345
-486.20724
-490.35272
-494.83178
-499.54059
-504.38163
-509.34404
-514.47186
-519.80631
-525.36881
-531.12263
-537.00719
-542.98673
-549.04298
-555.15299
-561.24992
-567.19942
-572.80484
-577.86525
-582.1833
-585.51266
-587.47984
-587.51518
-584.90926
-578.88777
-568.76377
-554.11478
-535.06825
-512.67956
-489.16893
-467.61256
-450.58007
-439.10701
-432.49495
-428.3943
-423.63746
-415.37451
-401.6276
-381.72192
-356.31025
-327.09298
-295.92486
-264.04685
-232.09259
-200.53126
-169.72539
-139.97585
-111.57248
-84.374911
-59.446288
-32.636466
-21.305875
-410.78264
-410.79708
-410.8484
-410.94088
-411.0805
-411.26962
-411.50415
-411.77979
-412.09882
-412.46735
-412.88849
-413.36193
-413.89045
-414.48127
-415.13646
-415.84411
-416.58586
-417.36337
-418.21012
-419.16296
-420.22371
-421.35899
-422.53527
-423.7525
-425.02254
-426.34758
-427.74453
-429.25585
-430.90494
-432.66148
-434.47162
-436.30289
-438.15786
-440.05885
-442.02484
-444.06889
-446.2082
-448.47544
-450.90088
-453.43544
-455.97751
-458.51339
-461.17414
-464.09911
-467.279
-470.58081
-473.90379
-477.26482
-480.77622
-484.58628
-488.79851
-493.38
-498.19615
-503.1414
-508.21459
-513.48058
-519.00987
-524.82652
-530.91103
-537.21421
-543.71209
-550.38641
-557.21946
-564.15161
-571.05882
-577.76061
-584.06728
-589.78531
-594.66223
-598.30221
-600.15215
-599.57599
-595.94597
-588.77291
-577.79951
-563.20118
-545.81318
-527.33195
-510.18051
-496.45125
-487.02679
-481.18857
-476.78717
-470.94412
-460.94639
-444.95071
-422.28901
-393.54529
-360.39177
-324.96172
-288.85636
-252.92249
-217.72571
-183.63503
-150.96789
-120.00048
-90.542988
-63.580806
-35.012372
-21.977713
-410.02075
-410.0381
-410.08887
-410.17766
-410.31117
-410.49172
-410.71495
-410.97723
-411.28187
-411.63541
-412.04066
-412.49675
-413.00605
-413.57642
-414.21083
-414.89769
-415.62014
-416.3818
-417.21376
-418.14686
-419.17816
-420.28144
-421.43589
-422.65121
-423.93388
-425.26804
-426.65628
-428.13466
-429.73709
-431.45931
-433.26778
-435.12973
-437.02406
-438.94327
-440.90107
-442.90953
-444.98175
-447.17156
-449.52837
-451.99406
-454.47106
-456.97329
-459.63466
-462.55752
-465.69596
-468.92711
-472.18457
-475.51049
-479.03298
-482.89916
-487.19044
-491.85047
-496.7452
-501.77692
-506.95697
-512.37189
-518.09983
-524.16915
-530.57267
-537.28955
-544.30919
-551.62124
-559.2147
-567.03739
-574.96248
-582.82567
-590.4533
-597.66572
-604.1955
-609.65226
-613.54436
-615.35973
-614.65587
-611.1359
-604.67728
-595.40787
-583.86545
-571.16347
-559.01076
-548.94968
-541.61991
-536.28823
-531.0614
-523.40568
-510.90285
-491.89377
-465.80223
-433.2267
-395.77691
-355.78276
-315.13467
-274.92474
-235.81543
-198.18824
-162.37389
-128.66351
-96.820285
-67.758207
-37.460076
-22.544359
-409.23256
-409.24839
-409.29816
-409.38422
-409.5117
-409.68328
-409.89496
-410.14368
-410.43347
-410.77138
-411.16003
-411.5978
-412.08652
-412.63459
-413.24663
-413.91187
-414.61424
-415.35858
-416.17415
-417.08695
-418.09233
-419.16453
-420.29084
-421.48804
-422.76985
-424.12353
-425.53476
-427.00925
-428.56971
-430.23566
-432.0082
-433.8748
-435.80625
-437.77337
-439.76624
-441.76192
-443.77082
-445.87922
-448.14108
-450.49446
-452.87662
-455.34354
-458.02031
-460.95266
-464.05365
-467.21028
-470.38683
-473.65251
-477.16757
-481.09567
-485.48204
-490.24239
-495.25109
-500.41912
-505.74606
-511.31609
-517.22169
-523.51514
-530.20776
-537.31709
-544.84736
-552.80527
-561.17975
-569.92052
-578.90032
-587.97197
-596.98597
-605.77895
-614.0749
-621.50589
-627.67776
-632.27439
-635.0858
-635.98795
-634.91169
-631.82356
-626.87126
-620.55109
-613.84016
-607.6892
-602.42125
-597.30347
-590.70148
-580.48147
-564.70297
-541.93737
-511.75064
-474.77995
-432.66386
-387.82907
-342.4176
-297.70898
-254.47715
-213.1389
-174.02208
-137.41537
-103.09142
-71.866067
-39.861509
-22.971602
-408.41496
-408.43302
-408.48124
-408.5637
-408.68493
-408.84745
-409.04744
-409.28223
-409.55657
-409.87804
-410.24908
-410.66746
-411.13458
-411.65904
-412.24696
-412.88948
-413.57125
-414.29646
-415.09205
-415.98076
-416.96234
-418.0115
-419.11397
-420.28305
-421.54202
-422.89994
-424.34209
-425.84452
-427.40112
-429.02912
-430.75233
-432.58334
-434.513
-436.52698
-438.58135
-440.59562
-442.57668
-444.62412
-446.77414
-448.97033
-451.19844
-453.57914
-456.26225
-459.24733
-462.38355
-465.52381
-468.63354
-471.81283
-475.27349
-479.21903
-483.70891
-488.64236
-493.86065
-499.24899
-504.78106
-510.52211
-516.58724
-523.0665
-530.00661
-537.45403
-545.44925
-554.02304
-563.16677
-572.8236
-582.86872
-593.17626
-603.62424
-614.06475
-624.23208
-633.79191
-642.48715
-650.26523
-657.19634
-663.30082
-668.4367
-672.30416
-674.56697
-675.08906
-674.11468
-671.987
-668.68006
-663.47331
-654.98182
-641.4856
-621.58174
-594.31361
-559.42016
-517.55739
-470.47361
-420.59934
-370.26711
-320.90268
-273.38499
-228.2273
-185.72686
-146.14917
-109.28487
-75.873317
-42.233125
-23.261553
-407.57285
-407.58729
-407.63674
-407.71603
-407.83065
-407.98391
-408.17173
-408.39188
-408.65008
-408.95437
-409.30689
-409.70481
-410.14926
-410.64906
-411.21131
-411.82928
-412.48925
-413.19373
-413.96558
-414.82607
-415.7804
-416.81025
-417.89736
-419.04316
-420.27177
-421.61241
-423.06495
-424.59755
-426.18354
-427.81909
-429.51873
-431.29993
-433.18916
-435.21429
-437.31584
-439.37547
-441.38268
-443.41334
-445.47132
-447.48308
-449.45548
-451.61065
-454.2045
-457.24908
-460.5045
-463.7088
-466.77812
-469.83892
-473.17861
-477.08162
-481.66204
-486.81576
-492.32328
-498.01654
-503.83652
-509.82572
-516.10125
-522.78107
-529.95337
-537.70001
-546.10841
-555.24501
-565.11862
-575.67073
-586.78571
-598.36035
-610.29576
-622.44545
-634.56648
-646.40222
-657.89996
-669.31603
-681.00595
-693.06046
-705.14486
-716.58945
-726.51235
-734.13849
-739.0072
-740.86304
-739.33007
-733.67781
-722.77407
-705.35711
-680.57792
-648.07995
-607.86871
-560.77266
-508.52512
-453.52253
-398.16182
-344.04415
-292.13095
-243.06498
-197.16924
-154.63679
-115.28161
-79.701075
-44.469401
-23.368958
-406.70229
-406.72014
-406.76919
-406.84414
-406.95171
-407.09526
-407.27038
-407.47542
-407.71716
-408.00382
-408.33706
-408.71329
-409.13348
-409.60712
-410.14242
-410.7343
-411.37071
-412.05247
-412.79756
-413.62827
-414.55135
-415.55714
-416.62937
-417.75899
-418.96551
-420.28541
-421.73058
-423.27337
-424.89077
-426.56818
-428.29069
-430.04782
-431.88529
-433.87103
-435.9697
-438.06771
-440.14194
-442.24262
-444.31622
-446.18599
-447.82689
-449.57621
-451.87622
-454.8479
-458.1974
-461.49066
-464.49642
-467.33767
-470.41984
-474.16072
-478.74185
-484.06305
-489.87521
-495.96841
-502.22458
-508.62321
-515.25098
-522.24021
-529.72038
-537.81448
-546.64186
-556.31226
-566.8851
-578.32854
-590.54259
-603.42972
-616.90324
-630.80782
-644.94081
-659.19232
-673.80969
-689.39552
-706.52906
-725.23971
-744.88793
-764.34332
-782.13595
-796.87457
-807.45964
-813.07902
-813.02962
-806.54824
-792.73333
-770.81893
-740.57624
-702.24333
-656.22086
-603.56026
-545.99789
-485.88986
-425.53611
-366.66404
-310.35581
-257.35408
-208.0686
-162.66151
-120.90998
-83.291556
-46.617108
-23.313133
-405.81086
-405.82698
-405.87452
-405.94592
-406.0464
-406.18007
-406.34253
-406.53267
-406.7577
-407.02606
-407.3391
-407.69259
-408.08702
-408.53274
-409.0393
-409.60332
-410.21362
-410.86975
-411.58632
-412.38636
-413.27719
-414.25384
-415.30284
-416.41257
-417.60106
-418.90931
-420.34911
-421.89419
-423.52762
-425.25049
-427.02897
-428.81901
-430.63705
-432.55729
-434.57312
-436.61633
-438.72146
-440.97982
-443.24793
-445.15888
-446.56705
-447.88642
-449.76993
-452.52166
-455.87193
-459.21972
-462.10046
-464.56784
-467.15458
-470.45241
-474.75297
-480.01379
-486.02459
-492.5412
-499.3494
-506.32339
-513.47876
-520.94423
-528.88534
-537.45452
-546.78392
-557.02036
-568.29442
-580.63197
-593.97631
-608.22832
-623.29014
-638.99706
-655.22086
-672.06559
-690.1569
-710.46262
-733.68682
-759.6713
-787.35764
-815.03679
-840.63589
-862.20287
-878.10878
-887.07175
-888.09246
-880.37058
-863.2336
-836.42219
-800.3037
-755.72006
-703.57652
-645.10041
-582.09756
-516.86877
-451.62486
-388.12677
-327.56611
-270.76081
-218.17201
-169.98386
-125.96058
-86.42357
-48.481906
-23.067837
-404.89521
-404.91366
-404.95817
-405.02461
-405.11762
-405.24161
-405.39183
-405.56728
-405.77517
-406.02417
-406.31573
-406.64561
-407.01391
-407.43095
-407.90682
-408.43954
-409.01932
-409.64602
-410.33297
-411.10123
-411.96085
-412.90765
-413.92609
-415.00613
-416.16901
-417.46579
-418.91027
-420.46988
-422.11517
-423.8674
-425.7097
-427.59557
-429.47776
-431.38098
-433.26114
-435.07644
-437.01336
-439.33331
-441.87042
-444.06253
-445.53162
-446.66011
-448.2713
-450.92034
-454.438
-458.05745
-461.01602
-463.17506
-465.09787
-467.54907
-471.0495
-475.76968
-481.61546
-488.32034
-495.55897
-503.08516
-510.829
-518.87333
-527.37676
-536.50952
-546.4316
-557.31414
-569.32317
-582.56269
-597.0394
-612.67348
-629.34147
-646.88886
-665.3016
-684.96721
-706.91846
-732.44453
-762.26113
-795.91807
-831.83889
-867.66303
-900.74994
-928.64964
-949.28817
-961.0373
-962.65998
-953.31252
-932.54979
-900.63171
-858.48534
-807.50754
-749.11529
-684.74507
-616.27787
-545.95876
-475.93438
-407.96726
-343.34065
-282.9444
-227.24834
-176.4481
-130.29872
-89.007932
-50.01344
-22.616466
-403.96174
-403.97476
-404.01892
-404.07963
-404.16502
-404.27932
-404.41783
-404.57849
-404.76884
-404.99725
-405.2658
-405.57097
-405.91355
-406.30253
-406.74644
-407.24299
-407.78594
-408.37778
-409.0337
-409.76976
-410.59773
-411.51229
-412.49719
-413.54035
-414.67076
-415.9433
-417.39396
-418.97644
-420.65275
-422.4135
-424.30775
-426.30501
-428.36165
-430.41314
-432.27251
-433.79443
-435.29267
-437.25331
-439.73933
-442.11213
-443.73164
-444.77526
-446.19718
-448.9346
-453.04915
-457.62842
-461.50499
-464.10469
-465.73274
-467.22652
-469.47365
-473.07076
-478.1756
-484.56463
-491.83585
-499.64065
-507.81031
-516.34177
-525.35641
-535.03184
-545.56555
-557.14228
-569.91861
-584.04906
-599.60959
-616.5815
-634.84256
-654.27859
-675.01789
-697.75857
-723.9264