/*--------------------------------*- C++ -*----------------------------------*\
| =========                 |                                                 |
| \\      /  F ield         | OpenFOAM: The Open Source CFD Toolbox           |
|  \\    /   O peration     | Version:  2406                                  |
|   \\  /    A nd           | Website:  www.openfoam.com                      |
|    \\/     M anipulation  |                                                 |
\*---------------------------------------------------------------------------*/
FoamFile
{
    version     2.0;
    format      ascii;
    arch        "LSB;label=32;scalar=64";
    class       surfaceScalarField;
    location    "300";
    object      phi;
}
// * * * * * * * * * * * * * * * * * * * * * * * * * * * * * * * * * * * * * //

dimensions      [0 3 -1 0 0 0 0];

oriented        oriented;

internalField   nonuniform List<scalar> 
39940
(
0.75003872
-4.0052758e-05
0.75010922
-0.00012923957
0.75023444
-0.0002454168
0.75040969
-0.00037302291
0.75063436
-0.00051044523
0.750909
-0.00065859948
0.75123432
-0.00081830196
0.75160938
-0.00098763027
0.75203539
-0.001168864
0.75251322
-0.001362022
0.75304367
-0.0015676584
0.75362785
-0.001786081
0.75426774
-0.0020184817
0.75496398
-0.0022637574
0.75571891
-0.0025246136
0.75653404
-0.0028010152
0.7574111
-0.0030943274
0.75835048
-0.0034034991
0.7593556
-0.0037325274
0.76042781
-0.0040805555
0.76156939
-0.0044501977
0.76277902
-0.0048372312
0.76405976
-0.0052429595
0.76541805
-0.0056639024
0.76686462
-0.0061034855
0.7684033
-0.0065682792
0.770032
-0.0070658869
0.77174686
-0.007579702
0.77355717
-0.0081111201
0.77547361
-0.0086830102
0.77749616
-0.0093060607
0.77961396
-0.0099499464
0.78182818
-0.010597245
0.78415557
-0.011268789
0.78660953
-0.011998161
0.78919021
-0.012795848
0.79188495
-0.013639305
0.7946863
-0.014502793
0.79760162
-0.015381707
0.80064776
-0.016290925
0.80384042
-0.017252641
0.80718317
-0.018275553
0.8106714
-0.019357173
0.81430208
-0.02049154
0.81807277
-0.02167509
0.82198804
-0.02291605
0.82605211
-0.024222049
0.8302717
-0.025605793
0.83464592
-0.027072509
0.83917173
-0.028630132
0.84384144
-0.030281434
0.84865226
-0.032034034
0.85359923
-0.033897262
0.8586795
-0.035892732
0.86388481
-0.038042206
0.8692023
-0.040377105
0.87460751
-0.042925894
0.88007231
-0.045723476
0.88556622
-0.048812656
0.89104751
-0.052237423
0.8964675
-0.056051041
0.90176928
-0.060326768
0.90688017
-0.065148255
0.91170748
-0.070597834
0.91616409
-0.076757709
0.92014843
-0.083796203
0.92352719
-0.091904677
0.92615114
-0.10112843
0.92787823
-0.11169072
0.92843475
-0.12470877
0.9274111
-0.14051462
0.92477782
-0.15653573
0.92050498
-0.17480113
0.91169359
-0.21086656
0.89405616
-0.26036603
0.87303661
-0.24760541
0.87484204
-0.087355453
0.92397412
0.21206347
1.0004716
0.52832595
1.074913
0.78450252
1.130018
0.95676642
1.1608947
1.0528038
1.1701186
1.0913037
1.1630289
1.0910624
1.1448938
1.0668476
1.119815
1.0288246
1.0906595
0.9834453
1.0593448
0.93463896
1.0271411
0.88476979
0.99489632
0.83525878
0.96318253
0.78695996
0.93238484
0.74038841
0.9027615
0.69583927
0.87448268
0.65345919
0.84766391
0.6132931
0.82240454
0.57527871
0.79880474
0.53934469
0.77708839
0.50504328
0.75753248
0.47280777
0.43064456
0.75002038
-7.2264433e-05
0.75007673
-0.00021358092
0.75018545
-0.0003818401
0.75034509
-0.00055969759
0.75055591
-0.00074734684
0.75081724
-0.00094530696
0.75112824
-0.0011541854
0.75149016
-0.0013743784
0.75190356
-0.0016071302
0.7523678
-0.0018515374
0.75288436
-0.0021099319
0.75345474
-0.0023829515
0.75407866
-0.0026694638
0.75476009
-0.002972953
0.75549899
-0.0032917784
0.75629772
-0.0036291181
0.75715645
-0.0039836522
0.75807766
-0.0043570969
0.75906201
-0.0047503858
0.76011444
-0.0051671906
0.76123587
-0.0056055623
0.76242983
-0.0060651862
0.76369925
-0.0065465009
0.76504745
-0.0070471361
0.766478
-0.0075690581
0.76799513
-0.0081206671
0.76959832
-0.0087038606
0.7712897
-0.0093061806
0.77307655
-0.0099321619
0.77496781
-0.010606602
0.77696074
-0.011328205
0.77905065
-0.012067726
0.78124042
-0.012815546
0.78354367
-0.013603778
0.78597114
-0.014458967
0.78852034
-0.01537771
0.79118215
-0.016330528
0.79395306
-0.017300517
0.79684199
-0.018296659
0.79986275
-0.019340281
0.80302647
-0.020447395
0.80633439
-0.021616842
0.80978517
-0.02284076
0.81337329
-0.024111489
0.81710001
-0.025431844
0.82096659
-0.026812876
0.82497907
-0.028265304
0.82913741
-0.029797297
0.83344203
-0.031411546
0.83788676
-0.03311101
0.84246879
-0.034899541
0.84718204
-0.036783511
0.8520227
-0.038773299
0.85698001
-0.040885298
0.8620424
-0.043139676
0.86719016
-0.045560389
0.87239985
-0.048171817
0.87764361
-0.051003763
0.8828833
-0.05408967
0.88807482
-0.057465265
0.89316795
-0.061180786
0.89809799
-0.065290673
0.90278224
-0.069865961
0.90711636
-0.074960776
0.91098742
-0.080657088
0.91427043
-0.08710699
0.91678053
-0.094458356
0.91830318
-0.10271086
0.91863147
-0.11209348
0.91750703
-0.12362154
0.91447914
-0.13747333
0.9091581
-0.15116541
0.90097852
-0.16662394
0.88758094
-0.19756475
0.86621916
-0.23914559
0.84319997
-0.224677
0.8405188
-0.084707251
0.8818831
0.17069362
0.95375549
0.45644413
1.0313995
0.70683301
1.0961048
0.89202814
1.1391275
1.0097549
1.1597241
1.0706984
1.1616108
1.0891856
1.1498872
1.0785946
1.1291326
1.0496081
1.1027814
1.0098247
1.0732044
0.96424041
1.0419862
0.91600738
1.0101941
0.86706611
0.97855471
0.81861057
0.94755924
0.77139288
0.91754724
0.72585756
0.88874428
0.68226856
0.86129769
0.64074478
0.83530157
0.60128482
0.81083966
0.56382659
0.78782101
0.52809966
0.7662105
0.49445399
0.45253489
0.75001634
-0.00010036247
0.75007135
-0.00029579813
0.75017836
-0.00051607491
0.75033779
-0.00074564572
0.75054832
-0.00098356027
0.75080919
-0.0012310954
0.75112063
-0.0014901509
0.7514816
-0.0017596994
0.75189249
-0.0020425107
0.75235575
-0.0023395487
0.75287035
-0.0026498341
0.75343799
-0.0029764689
0.75406068
-0.0033186789
0.75473892
-0.0036781941
0.75547554
-0.0040560458
0.7562707
-0.0044527337
0.75712608
-0.0048688637
0.75804327
-0.0053055379
0.75902545
-0.0057650266
0.76007517
-0.0062497779
0.76119477
-0.0067580193
0.76238452
-0.0072876306
0.76364534
-0.007840369
0.76498059
-0.0084158035
0.76639731
-0.0090196085
0.7679042
-0.0096610833
0.76950028
-0.010333343
0.77118638
-0.011025284
0.77296815
-0.011746194
0.77484986
-0.012518488
0.77682807
-0.01333415
0.77890463
-0.014170252
0.78108791
-0.01502557
0.78338507
-0.015929762
0.78579934
-0.016903727
0.78832834
-0.017936349
0.79096808
-0.018997235
0.79372198
-0.020078648
0.79660012
-0.021198664
0.7996112
-0.022376922
0.80275994
-0.023624698
0.80604811
-0.024935179
0.80947391
-0.02629683
0.81303713
-0.027703281
0.81674142
-0.029163221
0.82058873
-0.030686384
0.82458166
-0.032285221
0.82872082
-0.033964631
0.83300242
-0.035723054
0.83742279
-0.03756191
0.84197598
-0.039483395
0.84665683
-0.041494008
0.85145621
-0.043601251
0.85636523
-0.045821538
0.86136814
-0.048168879
0.86644574
-0.050663455
0.87157152
-0.053322319
0.87671143
-0.056167527
0.88182193
-0.059222281
0.88685392
-0.062517359
0.89174702
-0.066090279
0.89642874
-0.069985107
0.90080091
-0.07424471
0.90475955
-0.078920187
0.90819232
-0.084082948
0.91094848
-0.089855119
0.91280869
-0.096316015
0.91353924
-0.103456
0.91295454
-0.11152415
0.91075032
-0.12140456
0.90635732
-0.1330066
0.89925876
-0.14396526
0.88884836
-0.15616275
0.8729088
-0.18166913
0.84946589
-0.21578874
0.8254204
-0.20069312
0.81990526
-0.079200781
0.85122129
0.13939528
0.91403058
0.39364698
0.98938189
0.63147131
1.0593066
0.82207641
1.1125829
0.95645147
1.1450269
1.0382408
1.1575833
1.0766332
1.1540667
1.0821287
1.1390147
1.0646841
1.116345
1.0325187
1.0889738
0.99163298
1.0589237
0.94607503
1.0275837
0.89842015
0.99591049
0.85029552
0.96454748
0.80276552
0.93394077
0.75647314
0.90438533
0.71183222
0.87606686
0.6690728
0.84908748
0.6282756
0.82350072
0.58943793
0.79918386
0.55245529
0.77584632
0.51782807
0.47540144
0.75001462
-0.00012650671
0.75006579
-0.00037401368
0.75016766
-0.00064482899
0.75031957
-0.00092376774
0.75052217
-0.0012115338
0.75077396
-0.0015075575
0.75107465
-0.0018150819
0.75142617
-0.0021353377
0.75182719
-0.0024677225
0.75227899
-0.0028158306
0.75278301
-0.0031787902
0.75333911
-0.0035581348
0.75394935
-0.0039550237
0.75461534
-0.0043707896
0.75533862
-0.004806405
0.75612092
-0.0052629887
0.75696218
-0.0057392961
0.75786538
-0.0062394009
0.75883248
-0.0067638473
0.75986536
-0.007314815
0.76096706
-0.0078916833
0.7621415
-0.0084939639
0.7633891
-0.0091201198
0.76471641
-0.0097758676
0.76612928
-0.010465394
0.76762759
-0.011192185
0.76920652
-0.011944718
0.77087189
-0.012722925
0.77263333
-0.013538995
0.77449291
-0.014407445
0.77645002
-0.015317912
0.7785071
-0.016252621
0.78067361
-0.017218052
0.78295226
-0.018236604
0.78534305
-0.019323749
0.78784296
-0.020464151
0.79045749
-0.021636575
0.79319391
-0.022837384
0.79605709
-0.024083967
0.79905257
-0.025396926
0.80218096
-0.026780357
0.80544166
-0.028224957
0.8088372
-0.029720905
0.81237141
-0.031264351
0.81604641
-0.032863048
0.81986479
-0.034528697
0.82382747
-0.03627188
0.82793046
-0.038092626
0.83217305
-0.03999142
0.83654854
-0.041963596
0.84105333
-0.044013751
0.84568047
-0.046145597
0.85042324
-0.048366732
0.85526777
-0.050687145
0.86019833
-0.053118706
0.86519088
-0.055673602
0.87021842
-0.05836541
0.87524515
-0.06120722
0.88022506
-0.064211747
0.8851053
-0.067402444
0.88981694
-0.070801128
0.89427574
-0.074435597
0.89838444
-0.078336777
0.90203763
-0.082546074
0.90511745
-0.087125297
0.90745539
-0.092148011
0.9088055
-0.09762544
0.90892918
-0.10354801
0.90767077
-0.11023415
0.90469523
-0.11835937
0.89924597
-0.12743438
0.89064702
-0.13522601
0.87842284
-0.14386042
0.861026
-0.16429598
0.83778837
-0.19263006
0.81599117
-0.17893886
0.8108275
-0.074023221
0.8352036
0.11505816
0.88772402
0.34115462
0.95602147
0.56317846
1.0252697
0.75281518
1.0840673
0.89763788
1.1259401
0.99636105
1.1489446
1.053636
1.1546054
1.0764876
1.1464858
1.0728302
1.1285379
1.0504939
1.1041165
1.016079
1.0757222
0.97448985
1.0451209
0.92903869
1.0135587
0.88187205
0.98188879
0.83444776
0.95068204
0.78769036
0.9203274
0.74219698
0.89107268
0.69833698
0.86305939
0.65630226
0.8363638
0.6161575
0.81094806
0.5779115
0.78666483
0.54214764
0.49845483
0.75001336
-0.00015174443
0.75006133
-0.00044837564
0.75016048
-0.00077023329
0.75030914
-0.001098101
0.7505072
-0.0014344863
0.75075613
-0.0017807257
0.75105386
-0.0021366669
0.75140112
-0.0025063372
0.7517984
-0.0028888547
0.75224635
-0.0032879065
0.7527457
-0.003702766
0.75329811
-0.0041357276
0.75390374
-0.0045863725
0.75456541
-0.005058584
0.75528335
-0.0055509845
0.75605938
-0.0060664562
0.75689542
-0.0066039878
0.75779283
-0.0071667917
0.75875359
-0.0077555878
0.75978155
-0.0083740896
0.76087888
-0.0090202655
0.76204722
-0.009693417
0.76328921
-0.010393454
0.76460782
-0.011126122
0.76600584
-0.011895164
0.76748225
-0.012700094
0.7690405
-0.013534206
0.77069178
-0.014405126
0.77244561
-0.015322954
0.77429829
-0.016288354
0.77624446
-0.017290052
0.77828782
-0.018320351
0.78043697
-0.019391866
0.78269747
-0.020523184
0.78506834
-0.021721531
0.78755007
-0.022971767
0.79014683
-0.02425676
0.792866
-0.025577802
0.79571307
-0.02695213
0.79868846
-0.028395214
0.80179196
-0.029909404
0.80502681
-0.031486945
0.80839549
-0.03311668
0.81190405
-0.034798415
0.81555413
-0.036536841
0.81935003
-0.038347059
0.82328904
-0.040233273
0.8273701
-0.042196615
0.83158776
-0.044232808
0.8359403
-0.046340029
0.84042027
-0.048517071
0.8450219
-0.05076921
0.84973567
-0.053100782
0.85454697
-0.055516711
0.85943608
-0.058024131
0.86437855
-0.060630183
0.86934122
-0.063339781
0.87428425
-0.066158865
0.87916096
-0.069093066
0.88391098
-0.072151894
0.88846602
-0.075348912
0.89274365
-0.078697825
0.89664801
-0.082215733
0.90007288
-0.085934105
0.90289371
-0.089897197
0.90491567
-0.094113854
0.90587768
-0.098531803
0.905571
-0.10319311
0.90386081
-0.10847021
0.90029686
-0.11471289
0.89393131
-0.12094304
0.88400545
-0.12516467
0.87024694
-0.13002455
0.8517795
-0.14584488
0.82926043
-0.17017265
0.81052638
-0.16024128
0.80759026
-0.071072235
0.82901429
0.093675846
0.87395405
0.29625361
0.93454418
0.50260527
0.99957927
0.68777682
1.0592545
0.83795278
1.1065338
0.94907751
1.1377001
1.0224775
1.151987
1.0622198
1.151222
1.0736199
1.1387084
1.0630324
1.1178985
1.0369103
1.0916781
1.0007274
1.0621736
0.95855644
1.0309365
0.91311972
0.99907635
0.86631644
0.96732485
0.81944932
0.9361817
0.77334726
0.90598521
0.72854175
0.87694444
0.68535371
0.84918339
0.64394239
0.8227355
0.60439709
0.79755121
0.56736733
0.52205069
0.75001352
-0.00017580555
0.75005979
-0.00052123068
0.7501549
-0.00089150046
0.75029958
-0.0012682897
0.75049385
-0.0016534923
0.75073577
-0.0020467657
0.75102766
-0.0024523196
0.75136792
-0.002870278
0.75175822
-0.0033029513
0.75219796
-0.0037517484
0.7526885
-0.0042178824
0.75323092
-0.0047033049
0.75382731
-0.0052084228
0.75447809
-0.0057354214
0.75518583
-0.0062852364
0.75595049
-0.006858451
0.75677473
-0.0074567953
0.75765936
-0.0080813614
0.75860883
-0.0087359602
0.75962341
-0.0094198783
0.76070696
-0.010134825
0.76186022
-0.010877536
0.7630865
-0.011650755
0.76439079
-0.01246174
0.76577463
-0.01331038
0.76723939
-0.014196055
0.76879242
-0.015118339
0.77044136
-0.016085095
0.77218515
-0.017096962
0.77401733
-0.018148763
0.77593761
-0.019236016
0.77795593
-0.020362944
0.78008338
-0.02154416
0.78232529
-0.022791685
0.78467776
-0.024101393
0.78714018
-0.025460327
0.78971741
-0.026857358
0.79241636
-0.028297801
0.79524114
-0.029797654
0.79819244
-0.031369021
0.80127267
-0.033014642
0.80448338
-0.034724338
0.80782949
-0.036489457
0.81131559
-0.038309987
0.8149456
-0.040190728
0.81871911
-0.042143532
0.82263494
-0.044171855
0.82669127
-0.046276145
0.8308839
-0.048448935
0.83520847
-0.050687873
0.83965969
-0.05299055
0.84423077
-0.055361004
0.84891248
-0.057801341
0.85368986
-0.060311071
0.85854192
-0.06289114
0.86344068
-0.065541791
0.86835401
-0.06826323
0.87324066
-0.071052245
0.87804813
-0.073902623
0.88272084
-0.076820805
0.88719234
-0.079808985
0.89138304
-0.08286787
0.89519817
-0.085998924
0.89853724
-0.089228503
0.90126332
-0.092565366
0.90316103
-0.095944325
0.90397905
-0.099281891
0.90355844
-0.10270781
0.9017367
-0.1065763
0.89790573
-0.11077666
0.89092724
-0.11381937
0.88007801
-0.11416971
0.86546898
-0.11533406
0.84691135
-0.12729186
0.82573829
-0.14904707
0.80989759
-0.14442212
0.80961146
-0.070760047
0.83036264
0.072974029
0.87059373
0.25606451
0.9247156
0.44850628
0.98437722
0.62812418
1.0417922
0.78054282
1.0906478
0.90023242
1.1267141
0.98643067
1.1478008
1.0411602
1.1538915
1.0675603
1.1470285
1.0699254
1.1302743
1.0536898
1.1066642
1.0243571
1.0786333
0.98660179
1.0479975
0.94376624
1.0161167
0.89820501
0.98391713
0.85165474
0.95203316
0.80523665
0.92091682
0.75966342
0.89086156
0.71541851
0.86204864
0.6727757
0.83457157
0.6319115
0.8084211
0.5935516
0.54642198
0.75001201
-0.00019975661
0.75005632
-0.00059120575
0.75014897
-0.0010097844
0.75029078
-0.0014350991
0.75047977
-0.001866801
0.75071841
-0.0023091316
0.75100489
-0.0027622215
0.75133999
-0.0032287356
0.75172414
-0.0037105967
0.75215855
-0.0042099905
0.75264288
-0.0047265394
0.7531789
-0.0052641992
0.75376809
-0.0058229551
0.75441256
-0.0064055982
0.75511301
-0.0070118669
0.75587072
-0.007643185
0.75668734
-0.0083016398
0.75756497
-0.0089884901
0.75850551
-0.0097068474
0.75951312
-0.010458077
0.76058774
-0.011239859
0.76173255
-0.012052574
0.762952
-0.012900499
0.7642482
-0.013788367
0.76562156
-0.014714129
0.76707428
-0.015679037
0.76861605
-0.016690317
0.77024816
-0.017747202
0.77196713
-0.01884493
0.77377317
-0.019981755
0.77567318
-0.02116068
0.77767973
-0.022392916
0.77979845
-0.02368684
0.78202759
-0.025046215
0.7843622
-0.026462114
0.78680349
-0.02792659
0.78935817
-0.029434568
0.79203433
-0.030994294
0.79483656
-0.032619738
0.79776529
-0.034319067
0.80082204
-0.036095052
0.80400948
-0.037937217
0.80733283
-0.039838732
0.81079489
-0.041797121
0.81440095
-0.043820596
0.81815148
-0.045916833
0.82204537
-0.048088239
0.8260797
-0.050333132
0.83025076
-0.052642903
0.83455424
-0.05501399
0.83898653
-0.0574446
0.84353968
-0.059934475
0.84820296
-0.062483284
0.85296044
-0.065085384
0.85778979
-0.067735448
0.86266429
-0.070429032
0.86755095
-0.073160057
0.87240775
-0.075915774
0.87718869
-0.078685949
0.88184045
-0.081469105
0.88630027
-0.084258011
0.89048862
-0.087036074
0.89432175
-0.089800914
0.89770012
-0.092562923
0.90046955
-0.095278314
0.90240486
-0.097814537
0.90329572
-0.10010571
0.9030264
-0.10237216
0.90135558
-0.10482935
0.89747652
-0.10679585
0.89017749
-0.10639204
0.87893362
-0.10280277
0.86435007
-0.10067919
0.84688077
-0.1098223
0.82799192
-0.1301921
0.81505352
-0.13149724
0.81734713
-0.073027508
0.83854597
0.051820863
0.87621181
0.21844204
0.92549519
0.39925122
0.97998301
0.57364864
1.0335287
0.72700271
1.0811134
0.85265487
1.1188501
0.94870758
1.1441535
1.0158774
1.155735
1.0560027
1.1541512
1.071532
1.1415854
1.0662741
1.1208672
1.0450885
1.0946327
1.0128448
1.0648803
0.97352375
1.0331475
0.92994028
1.0006098
0.88419371
0.96807592
0.83777187
0.93609467
0.79164788
0.90505535
0.74646418
0.87521726
0.70263399
0.84673286
0.66042997
0.81960521
0.6207123
0.57163759
0.75001184
-0.00022242338
0.75005587
-0.00066095799
0.75014641
-0.0011258495
0.75028386
-0.0015974631
0.75047015
-0.0020773056
0.75070351
-0.0025661608
0.75098457
-0.0030666601
0.75131354
-0.0035810432
0.75169154
-0.0041120821
0.75211811
-0.0046603894
0.75259538
-0.0052281257
0.75312331
-0.0058169993
0.75370455
-0.0064294995
0.7543393
-0.0070659964
0.75503023
-0.007728921
0.75577818
-0.008418121
0.75658406
-0.0091357494
0.757451
-0.0098849512
0.75838125
-0.01066742
0.75937578
-0.011483078
0.76043759
-0.012331866
0.76157082
-0.0132158
0.76277762
-0.014137359
0.76405791
-0.015098873
0.76541525
-0.016101735
0.76685707
-0.017151078
0.76838686
-0.018250326
0.77000282
-0.019393088
0.77170528
-0.020576138
0.77349769
-0.021800788
0.77538945
-0.023076927
0.77738696
-0.024414062
0.77948998
-0.025814395
0.78169464
-0.027277011
0.78400034
-0.028794514
0.7864127
-0.030364362
0.78894211
-0.031986855
0.79159642
-0.033669321
0.79437776
-0.035421323
0.79728674
-0.037249506
0.80032202
-0.039153845
0.80348718
-0.04112744
0.80678664
-0.043163665
0.81022697
-0.045262349
0.81381126
-0.047428875
0.81754038
-0.04966946
0.82141442
-0.051985825
0.82543105
-0.05437378
0.82958818
-0.056824227
0.83388202
-0.059331549
0.83830708
-0.061892039
0.84285581
-0.064503718
0.84751661
-0.067162592
0.85227327
-0.069858638
0.85710629
-0.072583101
0.86198828
-0.07532356
0.86688563
-0.078067289
0.87176074
-0.080797394
0.87657408
-0.083501169
0.88128071
-0.086171678
0.88581928
-0.088784634
0.89011887
-0.091314135
0.89410224
-0.093750861
0.89766644
-0.096080726
0.90063587
-0.098188112
0.90279179
-0.099901444
0.90398498
-0.10122624
0.90411522
-0.1024274
0.90280821
-0.10343472
0.89908924
-0.10296177
0.89181882
-0.098980863
0.88083222
-0.091684146
0.86721483
-0.08698377
0.85192626
-0.094516277
0.8362716
-0.11454288
0.82648242
-0.12169302
0.831203
-0.077702292
0.85335735
0.029726314
0.88974956
0.18210063
0.93559007
0.35344345
0.98565488
0.52360361
1.0348806
0.67779256
1.079469
0.80808448
1.1163247
0.91187536
1.143148
0.98908114
1.1582348
1.0409434
1.1609566
1.0688352
1.1523444
1.0749058
1.1346188
1.062827
1.1103132
1.0371572
1.0816143
1.0022249
1.0502355
0.96131818
1.0175199
0.91690644
0.98446029
0.87082883
0.95171533
0.82439117
0.91976842
0.77841489
0.8889486
0.733469
0.85948459
0.68992683
0.83139884
0.64882829
0.59770211
0.75001185
-0.00024516759
0.75005272
-0.00072701858
0.75014134
-0.0012394661
0.75027613
-0.0017567184
0.75045781
-0.0022827639
0.75068644
-0.002818057
0.75096219
-0.0033654039
0.75128601
-0.0039278369
0.75165729
-0.0045065116
0.75207736
-0.0051039625
0.75254774
-0.0057224995
0.75306899
-0.0063627677
0.75364192
-0.007027343
0.75426922
-0.0077185334
0.75495176
-0.0084371823
0.75569089
-0.0091838362
0.75648809
-0.0099607381
0.75734539
-0.010771188
0.75826513
-0.011616771
0.75925029
-0.01249792
0.76030336
-0.013414345
0.76142676
-0.014368405
0.76262277
-0.015362572
0.76389254
-0.016397933
0.7652414
-0.017479903
0.76667388
-0.018612802
0.76818983
-0.019795406
0.76978807
-0.0210199
0.7714713
-0.022286587
0.77324877
-0.023603425
0.7751271
-0.02497858
0.777108
-0.026417705
0.779188
-0.027917971
0.78136521
-0.029479045
0.78364479
-0.03109925
0.78603462
-0.032778119
0.78854455
-0.034518527
0.7911798
-0.03632446
0.79394053
-0.038201534
0.79682634
-0.040155964
0.7998377
-0.042187743
0.80297832
-0.044292136
0.8062542
-0.046464197
0.80967079
-0.048703268
0.81323279
-0.051014569
0.81694207
-0.053402023
0.82079895
-0.055866117
0.82480112
-0.058399696
0.82894694
-0.060993979
0.83323565
-0.063643656
0.83766294
-0.066341515
0.84221961
-0.06908088
0.84689456
-0.071856216
0.85167104
-0.074652011
0.85653227
-0.077459446
0.86145391
-0.080258286
0.86640029
-0.083024294
0.87134104
-0.085745557
0.87625211
-0.088415469
0.8810916
-0.091008698
0.88580216
-0.093485423
0.89031515
-0.095807941
0.89456025
-0.097965727
0.89842038
-0.099898123
0.90171068
-0.10142391
0.90424498
-0.10237266
0.90593326
-0.10284735
0.90665976
-0.10308228
0.9058953
-0.10258572
0.90257932
-0.099539471
0.89579649
-0.092076624
0.88583301
-0.081612723
0.87417921
-0.075265229
0.86203696
-0.082355898
0.85038393
-0.10289049
0.84403287
-0.11532704
0.85092699
-0.084554269
0.87408243
0.0066224596
0.90993704
0.14629133
0.95346851
0.30994386
1.0000169
0.4770749
1.0451973
0.6326248
1.0860284
0.76726575
1.1203306
0.87758763
1.1464028
0.96302557
1.1628022
1.024561
1.1683574
1.0632945
1.1630215
1.0802512
1.1481308
1.0777222
1.1258114
1.0594765
1.0983017
1.0297311
1.0674595
0.99215438
1.0347306
0.94962833
1.0012713
0.90428215
0.96789714
0.85776248
0.93516241
0.81115119
0.90345527
0.76519261
0.87305154
0.72036102
0.84401738
0.67789339
0.6246362
0.75001109
-0.00026683607
0.75005205
-0.00079371805
0.75013732
-0.0013498547
0.75026949
-0.0019133496
0.75044726
-0.0024842654
0.75067131
-0.0030653396
0.75094246
-0.003659514
0.75125988
-0.0042681982
0.75162473
-0.004894483
0.75203835
-0.0055410498
0.75250045
-0.0062085578
0.7530135
-0.0069002755
0.75357839
-0.0076170489
0.75419668
-0.0083619542
0.75486916
-0.0091352546
0.75559885
-0.0099399948
0.75638627
-0.010775851
0.75723305
-0.011646786
0.75814263
-0.012555762
0.75911632
-0.013500991
0.76015838
-0.014485471
0.76127021
-0.015509105
0.76245315
-0.016574465
0.76371128
-0.017685214
0.76504781
-0.018845646
0.76646545
-0.020059579
0.76796248
-0.021321349
0.769542
-0.022627676
0.77121129
-0.023982725
0.7729767
-0.025393802
0.77484248
-0.026867897
0.7768065
-0.028405009
0.77886712
-0.030002759
0.78102383
-0.031660926
0.78328334
-0.033383922
0.78565348
-0.035172092
0.78814166
-0.037028572
0.79075129
-0.038954586
0.7934832
-0.040953847
0.79633936
-0.043033645
0.79932226
-0.045193705
0.80243597
-0.047429989
0.80568761
-0.049740197
0.80908344
-0.052122977
0.81262692
-0.054581452
0.81632073
-0.057119222
0.82016369
-0.059733098
0.82415485
-0.062415804
0.82829649
-0.06516111
0.83258647
-0.067958864
0.83702212
-0.070801057
0.84159718
-0.07367791
0.84629939
-0.076578228
0.85111809
-0.079488484
0.85603378
-0.082390851
0.86102228
-0.085260347
0.86606369
-0.088076615
0.87114014
-0.090829629
0.87622556
-0.093504117
0.88127362
-0.096054319
0.88622561
-0.098427423
0.891027
-0.10058996
0.89560877
-0.10251672
0.89984597
-0.1040923
0.90356205
-0.10508502
0.90661973
-0.10536651
0.90897534
-0.10513347
0.91045952
-0.10449032
0.91042409
-0.10245894
0.90782718
-0.096829175
0.90208564
-0.08620759
0.89395866
-0.073372375
0.8852028
-0.066438306
0.87702562
-0.074148164
0.86994107
-0.095784281
0.86729474
-0.11263873
0.87607004
-0.093266462
0.89991037
-0.017146098
0.93557265
0.1106894
0.97760552
0.26795397
1.0214155
0.4332935
1.0630997
0.59096326
1.1000806
0.73030705
1.1309594
0.84673254
1.1547218
0.93928717
1.1704913
1.0088126
1.177195
1.0566064
1.1740918
1.0833635
1.1615828
1.0902333
1.1412066
1.0798484
1.1149794
1.0559493
1.0847931
1.0223283
1.0522209
0.98218683
1.0185154
0.9379752
0.98463274
0.89163511
0.95123364
0.84454758
0.91877489
0.79766096
0.88751044
0.75165348
0.85754492
0.70788515
0.65244872
0.75001072
-0.00028877066
0.75004866
-0.00085639121
0.75013238
-0.0014582317
0.7502608
-0.0020657462
0.75043455
-0.00268132
0.75065443
-0.0033080113
0.75091951
-0.0039471416
0.75123083
-0.0046020428
0.75158961
-0.0052759648
0.75199542
-0.0059699323
0.7524505
-0.0066871781
0.75295492
-0.0074286986
0.75351141
-0.0081978694
0.75412097
-0.00899612
0.75478549
-0.0098248464
0.75550508
-0.010685524
0.75628223
-0.011580073
0.75712025
-0.012512862
0.75801883
-0.013482853
0.75898308
-0.01449366
0.76001384
-0.015544297
0.76111414
-0.016637284
0.76228619
-0.017774439
0.76353323
-0.018960295
0.7648596
-0.020200082
0.76626351
-0.021491412
0.76774593
-0.022831332
0.7693132
-0.024221724
0.77096936
-0.02566428
0.77272111
-0.027169305
0.77456911
-0.028738398
0.77651147
-0.030369582
0.77854791
-0.032061987
0.78068318
-0.033819608
0.78292174
-0.035645746
0.78527152
-0.037543971
0.78773547
-0.039513096
0.79031657
-0.041555207
0.79301924
-0.043676149
0.79584507
-0.045880227
0.79879922
-0.048170062
0.80188685
-0.050540831
0.80511471
-0.052991528
0.80848889
-0.055520423
0.81201512
-0.058130717
0.81569305
-0.060820424
0.81952293
-0.06358695
0.82350553
-0.06642328
0.82764324
-0.069324246
0.83193811
-0.072278882
0.83638943
-0.075276487
0.84099213
-0.078303076
0.84573737
-0.081344238
0.85061423
-0.084384293
0.85560568
-0.087399525
0.86069889
-0.090368694
0.86587928
-0.093269734
0.8711308
-0.096090752
0.87642078
-0.098799737
0.88170815
-0.10134198
0.8869458
-0.1036584
0.89208854
-0.10571711
0.89706735
-0.10746952
0.90175864
-0.10874631
0.90600745
-0.10928621
0.9097301
-0.10903363
0.91290504
-0.10824735
0.91530589
-0.1068226
0.91621704
-0.10328768
0.91472619
-0.095238729
0.9106291
-0.082004209
0.90509077
-0.067745246
0.90001294
-0.06130815
0.89643731
-0.070551009
0.89437231
-0.093703941
0.89575047
-0.11398618
0.90626584
-0.10372926
0.93025868
-0.041080792
0.96560863
0.075387668
1.0065156
0.22708161
1.0481157
0.39171708
1.0868319
0.55226383
1.1202502
0.69690313
1.147448
0.81954872
1.1680339
0.9187136
1.1817509
0.99510464
1.1880091
1.0503526
1.1858926
1.0854782
1.1750812
1.1010373
1.1564163
1.0985019
1.1314945
1.0808567
1.102077
1.0517296
1.0698125
1.0144349
1.0360469
0.97172647
1.0018303
0.9258422
0.9679038
0.8784706
0.93477681
0.8308004
0.90276224
0.7836949
0.87197667
0.73869954
0.68109457
0.75001065
-0.00030920267
0.75004851
-0.00091925678
0.75012969
-0.0015641165
0.75025499
-0.0022150462
0.75042538
-0.0028750095
0.75063935
-0.003544766
0.75089962
-0.0042299285
0.75120485
-0.0049297647
0.75155692
-0.0056506943
0.75195607
-0.0063920884
0.75240278
-0.0071573434
0.75290013
-0.0079499327
0.75344785
-0.0087697573
0.75404805
-0.0096207426
0.75470208
-0.010503766
0.75541207
-0.011421268
0.75617931
-0.012374171
0.75700576
-0.013367114
0.75789443
-0.014399678
0.75884681
-0.015474001
0.75986607
-0.016591157
0.76095387
-0.017752561
0.76211391
-0.0189621
0.76335003
-0.020224215
0.76466227
-0.02154012
0.76605176
-0.022908498
0.76752186
-0.024328689
0.76907482
-0.025801302
0.77071769
-0.02733257
0.77245176
-0.028927362
0.77427743
-0.030587054
0.77619687
-0.03231186
0.77821235
-0.034100775
0.7803273
-0.035958181
0.78254827
-0.037889858
0.78487669
-0.039894304
0.7873166
-0.041973528
0.78987137
-0.044129826
0.79254423
-0.04636926
0.7953415
-0.048699123
0.79826617
-0.051117877
0.80132382
-0.053622634
0.80452292
-0.056214979
0.80787194
-0.05889342
0.81137622
-0.061658717
0.81503655
-0.064504662
0.8188538
-0.067429025
0.82283068
-0.070426088
0.82696986
-0.073490285
0.83127661
-0.076612548
0.83575109
-0.079777043
0.84039037
-0.082966968
0.84518799
-0.086164662
0.85013459
-0.089351925
0.85522133
-0.092505314
0.86043898
-0.095603221
0.86577886
-0.098623867
0.87122037
-0.10154339
0.87673769
-0.10432415
0.88229711
-0.10690324
0.88786168
-0.10921778
0.89339438
-0.11123588
0.89883018
-0.11288099
0.90405201
-0.113933
0.90893919
-0.11412795
0.9134522
-0.11349309
0.91757983
-0.11231447
0.92104589
-0.11021914
0.92314555
-0.10530263
0.9231632
-0.095155241
0.92126991
-0.080004299
0.91894423
-0.065329987
0.91810639
-0.060414006
0.91955874
-0.071973683
0.92282253
-0.096938862
0.92859728
-0.11971111
0.94102873
-0.11609136
0.96469976
-0.064675163
0.99915223
0.041004092
1.0388418
0.18744301
1.0785047
0.35208986
1.1146235
0.51617162
1.1448742
0.66667556
1.1685002
0.79594378
1.1855858
0.90164639
1.1964029
0.98430087
1.2009628
1.0457981
1.1986192
1.0878189
1.1886793
1.1109663
1.1713196
1.1158442
1.1475917
1.1045625
1.1190408
1.0802557
1.0872516
1.0461986
1.053617
1.005338
1.0192421
0.96019829
0.98494113
0.91276166
0.95126911
0.86447609
0.91864165
0.81634461
0.88716249
0.77020012
0.71049418
0.75000999
-0.00033055416
0.75004559
-0.00097932607
0.75012412
-0.0016668121
0.75024603
-0.0023605091
0.75041165
-0.0030634572
0.75062184
-0.0037772697
0.75087579
-0.0045059256
0.75117524
-0.0052512315
0.75151971
-0.0060173369
0.75191126
-0.0068061424
0.75235039
-0.0076194119
0.75283846
-0.0084613158
0.75337703
-0.0093319005
0.7539682
-0.0102357
0.75461281
-0.011172617
0.75531195
-0.012145449
0.75606905
-0.013157328
0.75688434
-0.014209244
0.75776194
-0.015304352
0.75870377
-0.016442677
0.75971208
-0.017625953
0.76078887
-0.018855684
0.76193759
-0.020137192
0.76316061
-0.021473678
0.76445945
-0.022865329
0.76583646
-0.024311678
0.76729302
-0.025811078
0.768834
-0.027367469
0.77046409
-0.028986799
0.77218294
-0.030669095
0.77399058
-0.032416579
0.77588841
-0.034231217
0.77788142
-0.036115427
0.77997526
-0.038073759
0.782173
-0.040108875
0.78447607
-0.042217602
0.78688745
-0.044404047
0.78941181
-0.046672839
0.79205517
-0.049031874
0.79482153
-0.051486227
0.79771511
-0.054033783
0.80074245
-0.056673389
0.80391163
-0.059407938
0.80723364
-0.062239195
0.81071308
-0.06516195
0.81435459
-0.068170462
0.81815989
-0.071259439
0.82213203
-0.07442441
0.82627735
-0.077662409
0.83060002
-0.080962089
0.83510268
-0.084305915
0.83978503