/*--------------------------------*- C++ -*----------------------------------*\
| =========                 |                                                 |
| \\      /  F ield         | OpenFOAM: The Open Source CFD Toolbox           |
|  \\    /   O peration     | Version:  2406                                  |
|   \\  /    A nd           | Website:  www.openfoam.com                      |
|    \\/     M anipulation  |                                                 |
\*---------------------------------------------------------------------------*/
FoamFile
{
    version     2.0;
    format      ascii;
    arch        "LSB;label=32;scalar=64";
    class       volVectorField;
    location    "300";
    object      U;
}
// * * * * * * * * * * * * * * * * * * * * * * * * * * * * * * * * * * * * * //

dimensions      [0 1 -1 0 0 0 0];

internalField   nonuniform List<vector> 
16045
(
(30.000364 -0.00067249531 0)
(30.002477 -0.0024468276 0)
(30.006081 -0.0048248173 0)
(30.011613 -0.0076184805 0)
(30.019446 -0.010756028 0)
(30.029675 -0.014235221 0)
(30.042177 -0.01805668 2.9832943e-22)
(30.056729 -0.022216168 0)
(30.073168 -0.026727719 0)
(30.091525 -0.031602301 0)
(30.111975 -0.036854639 0)
(30.134657 -0.042489908 0)
(30.15959 -0.048527146 -2.9939706e-22)
(30.186794 -0.054981469 0)
(30.216375 -0.06188181 0)
(30.248398 -0.069246526 0)
(30.28268 -0.077109599 0)
(30.318883 -0.085495325 1.5058314e-22)
(30.356936 -0.094458285 1.5058216e-22)
(30.397464 -0.10403355 0)
(30.441675 -0.11423131 0)
(30.49045 -0.12497744 0)
(30.543329 -0.13615063 0)
(30.598794 -0.14764071 0)
(30.655327 -0.15964243 -3.0299808e-22)
(30.712318 -0.17254181 0)
(30.771612 -0.18630741 -2.8442404e-22)
(30.836952 -0.20055669 -1.8958646e-23)
(30.909118 -0.21553572 -3.8142455e-23)
(30.984762 -0.231845 1.8921415e-23)
(31.062876 -0.24939298 3.8163958e-23)
(31.147739 -0.26743837 1.0271576e-25)
(31.241691 -0.28579919 -1.9093533e-23)
(31.339002 -0.30517095 3.0673363e-22)
(31.431609 -0.3263669 -1.9240152e-23)
(31.519668 -0.34943877 -8.291728e-26)
(31.612943 -0.37376019 1.9156335e-23)
(31.721306 -0.39868497 0)
(31.845468 -0.42414865 1.9359337e-23)
(31.977246 -0.45060439 2.899036e-22)
(32.107617 -0.47868046 0)
(32.234219 -0.50868296 0)
(32.362429 -0.54055284 3.1010388e-22)
(32.500297 -0.57412979 0)
(32.652177 -0.60943006 3.1099396e-22)
(32.816282 -0.64660765 0)
(32.987117 -0.68596455 0)
(33.159552 -0.72783396 0)
(33.331554 -0.77256987 0)
(33.504518 -0.82043849 0)
(33.68188 -0.87162865 0)
(33.867177 -0.92641025 0)
(34.062326 -0.98529888 0)
(34.266831 -1.0490149 0)
(34.478326 -1.1185061 0)
(34.69387 -1.1949193 0)
(34.910902 -1.2794543 0)
(35.127869 -1.3734427 -3.0812923e-22)
(35.34458 -1.4784291 0)
(35.561302 -1.5964233 0)
(35.777484 -1.7295726 0)
(35.991231 -1.8805704 0)
(36.199498 -2.0527257 0)
(36.39819 -2.2494462 0)
(36.582679 -2.4735665 0)
(36.749442 -2.7309852 0)
(36.895707 -3.0294644 -2.734678e-22)
(37.017711 -3.371751 0)
(37.112609 -3.7662246 0)
(37.170963 -4.2543564 0)
(37.16581 -4.851059 0)
(37.097525 -5.4579613 0)
(37.027525 -6.1417507 0)
(36.823738 -7.5102274 0)
(35.972558 -9.4624772 0)
(34.5264 -9.1632701 0)
(33.71761 -3.0997004 0)
(35.175625 8.4755571 0)
(38.328551 19.975112 0)
(41.719141 28.515798 0)
(44.436757 33.686379 0)
(46.142063 36.142808 0)
(46.874942 36.75222 0)
(46.843248 36.233607 0)
(46.278327 35.0794 0)
(45.370035 33.592554 0)
(44.254388 31.949587 0)
(43.023117 30.251821 0)
(41.73694 28.557904 0)
(40.43628 26.902141 0)
(39.148278 25.304478 0)
(37.891376 23.776406 0)
(36.677943 22.323796 0)
(35.516002 20.948901 0)
(34.411365 19.651374 0)
(33.365806 18.428558 0)
(32.39139 17.277671 0)
(31.461846 16.18634 0)
(30.707855 15.170958 0)
(29.7244 13.854944 0)
(30.000142 -0.0019472392 0)
(30.001416 -0.0063483905 0)
(30.004228 -0.011497831 2.9787611e-22)
(30.00916 -0.0170722 0)
(30.016456 -0.022987467 0)
(30.026153 -0.029271309 0)
(30.038133 -0.035933769 -2.9821776e-22)
(30.052163 -0.042987592 0)
(30.068067 -0.050469097 -2.9835666e-22)
(30.085876 -0.058407557 0)
(30.10577 -0.066813581 0)
(30.127885 -0.075692249 0)
(30.152233 -0.085066604 2.991908e-22)
(30.178826 -0.094969563 0)
(30.20777 -0.10542808 0)
(30.239124 -0.11645538 0)
(30.272704 -0.12807699 4.5013045e-22)
(30.308155 -0.14035062 -1.4993443e-22)
(30.345399 -0.15337163 -3.0059009e-22)
(30.3851 -0.16716464 3.0063411e-22)
(30.428561 -0.18161684 0)
(30.476774 -0.19656645 0)
(30.529311 -0.21198293 -6.0334471e-22)
(30.584384 -0.22797917 -3.0203541e-22)
(30.640065 -0.2450571 3.0253881e-22)
(30.695934 -0.26366826 0)
(30.754485 -0.28303094 3.0292317e-22)
(30.819234 -0.30234693 0)
(30.890139 -0.32289225 0)
(30.964134 -0.34609299 0)
(31.041342 -0.37062754 -7.6252141e-23)
(31.126128 -0.39401604 7.5976847e-23)
(31.219633 -0.4164603 0)
(31.315278 -0.44097692 -2.293901e-22)
(31.405523 -0.4699284 -7.630875e-23)
(31.491735 -0.50252839 0)
(31.584289 -0.53591348 -3.8347254e-23)
(31.692612 -0.56798588 -2.6371512e-25)
(31.816502 -0.59904391 3.824629e-23)
(31.947177 -0.63104344 -3.3531725e-25)
(32.075715 -0.6658737 0)
(32.200326 -0.70406436 0)
(32.326791 -0.7448944 -4.8938856e-25)
(32.463126 -0.78744772 0)
(32.613446 -0.83140142 -3.0988396e-22)
(32.77573 -0.87710141 0)
(32.944334 -0.92527678 3.1073195e-22)
(33.114091 -0.97653527 0)
(33.283037 -1.0311092 0)
(33.452769 -1.0888738 -3.1103027e-22)
(33.626804 -1.1495052 3.1075698e-22)
(33.808479 -1.2129697 0)
(33.999427 -1.2798534 0)
(34.198889 -1.3511749 0)
(34.404258 -1.4281444 -1.5520576e-22)
(34.612556 -1.5118745 -1.544866e-22)
(34.821288 -1.6032724 0)
(35.028986 -1.7032783 3.0519026e-22)
(35.235233 -1.812914 0)
(35.439842 -1.9336406 0)
(35.642075 -2.0673858 0)
(35.84001 -2.2167906 -2.9013556e-22)
(36.030298 -2.3845637 0)
(36.208426 -2.5731465 0)
(36.368873 -2.7857881 0)
(36.506952 -3.0281671 0)
(36.617918 -3.3066308 2.6571439e-22)
(36.695607 -3.6232181 0)
(36.7334 -3.9881024 0)
(36.719443 -4.4372212 0)
(36.633565 -4.9752753 -2.3013591e-22)
(36.479015 -5.5167963 0)
(36.271163 -6.1334905 0)
(35.826457 -7.3083837 0)
(34.772621 -8.8535438 0)
(33.362028 -8.3475003 0)
(32.690102 -3.2465365 0)
(33.878472 6.0220438 0)
(36.635986 16.191188 0)
(39.936361 24.836415 0)
(42.891867 30.964417 0)
(45.036095 34.616142 0)
(46.246103 36.28417 0)
(46.624637 36.550435 0)
(46.366529 35.917161 0)
(45.669677 34.750807 0)
(44.69258 33.291839 0)
(43.547994 31.689062 0)
(42.312256 30.03259 0)
(41.036616 28.376749 0)
(39.755797 26.754317 0)
(38.493523 25.185156 0)
(37.26597 23.680903 0)
(36.083871 22.247644 0)
(34.954815 20.887591 0)
(33.881565 19.599324 0)
(32.87512 18.380338 0)
(31.906546 17.218344 0)
(31.09585 16.1257 0)
(29.949202 14.721062 0)
(30.000079 -0.0030414991 0)
(30.001183 -0.0091528937 0)
(30.003943 -0.015590178 -2.9782485e-22)
(30.008913 -0.022226854 0)
(30.016231 -0.029071324 0)
(30.025923 -0.036182255 0)
(30.037882 -0.043603159 -1.4904327e-22)
(30.051866 -0.051386599 1.4892632e-22)
(30.067695 -0.059587046 2.9818526e-22)
(30.085422 -0.0682366 0)
(30.105241 -0.077335716 0)
(30.12728 -0.086895346 0)
(30.151534 -0.096948544 -2.9861721e-22)
(30.178019 -0.1075391 0)
(30.206859 -0.11867798 0)
(30.238119 -0.13036632 -1.4935992e-22)
(30.271579 -0.14263497 -4.4918894e-22)
(30.306842 -0.1556057 0)
(30.343866 -0.16940247 2.9979606e-22)
(30.383449 -0.18399159 -3.0021011e-22)
(30.426957 -0.19915949 1.5045528e-22)
(30.475205 -0.21481081 -3.0006871e-22)
(30.527506 -0.23108736 -1.4985202e-22)
(30.581894 -0.24829278 -3.0104029e-22)
(30.636568 -0.26686017 0)
(30.691983 -0.28657464 -6.0329583e-22)
(30.751034 -0.30631336 0)
(30.815751 -0.32638088 -6.0418352e-22)
(30.885055 -0.34909071 0)
(30.957759 -0.37487391 -7.5731137e-22)
(31.036125 -0.40032153 -1.5185311e-22)
(31.123182 -0.42264032 0)
(31.216687 -0.44423048 -7.6294369e-23)
(31.309072 -0.47055332 7.598675e-23)
(31.395413 -0.50398606 0)
(31.480236 -0.54136145 -3.0425071e-22)
(31.574451 -0.57743664 -7.6410325e-23)
(31.685342 -0.6098149 7.6045522e-23)
(31.810246 -0.64036784 0)
(31.939613 -0.67289138 -2.9526623e-25)
(32.065564 -0.70993959 3.0683758e-22)
(32.187901 -0.751442 -3.0686344e-22)
(32.313231 -0.79556233 -3.0734705e-22)
(32.449317 -0.84063179 6.1426003e-22)
(32.59949 -0.886358 3.0766203e-22)
(32.761083 -0.933746 0)
(32.928351 -0.98413172 3.083594e-22)
(33.096557 -1.0382136 -3.0915147e-22)
(33.264271 -1.095696 -1.5534494e-22)
(33.433338 -1.1557756 4.637753e-22)
(33.607126 -1.2177252 -3.0931746e-22)
(33.788415 -1.2814645 0)
(33.978223 -1.3477832 0)
(34.175583 -1.4180427 0)
(34.378147 -1.4935234 0)
(34.583133 -1.5751549 1.5267964e-22)
(34.788156 -1.6636206 -1.2000268e-24)
(34.991771 -1.7594856 4.5229666e-22)
(35.193198 -1.8635088 0)
(35.391735 -1.9769822 0)
(35.586232 -2.1015029 0)
(35.774547 -2.2387876 2.8902742e-22)
(35.952927 -2.3905507 -2.8361848e-22)
(36.116397 -2.5584922 0)
(36.25965 -2.7451659 -2.7424426e-22)
(36.377564 -2.9548456 0)
(36.46365 -3.191829 0)
(36.509918 -3.4562089 0)
(36.509946 -3.7561495 0)
(36.453144 -4.1232468 0)
(36.318669 -4.5582687 2.3112405e-22)
(36.103998 -4.9782556 0)
(35.810965 -5.4483431 -2.0569177e-22)
(35.262866 -6.3921382 0)
(34.133278 -7.6158919 0)
(32.703433 -7.0439605 0)
(32.002523 -2.6848754 0)
(32.858764 5.0477812 0)
(35.182277 13.922706 0)
(38.247504 22.066575 0)
(41.280528 28.43358 0)
(43.757105 32.767447 0)
(45.426106 35.248923 0)
(46.263288 36.246644 0)
(46.382658 36.168325 0)
(45.960288 35.379752 0)
(45.167241 34.15954 0)
(44.138054 32.697771 0)
(42.96868 31.116633 0)
(41.725337 29.491923 0)
(40.453387 27.870798 0)
(39.183677 26.283098 0)
(37.937656 24.74645 0)
(36.729331 23.271983 0)
(35.568503 21.864993 0)
(34.458964 20.526294 0)
(33.4112 19.254371 0)
(32.395114 18.042208 0)
(31.533744 16.902881 0)
(30.285138 15.488931 0)
(30.000074 -0.0039734037 0)
(30.00108 -0.011829127 0)
(30.003632 -0.02003033 0)
(30.00833 -0.028537211 0)
(30.015339 -0.037352957 0)
(30.024683 -0.04652361 0)
(30.036252 -0.056112677 0)
(30.049807 -0.066176773 0)
(30.065188 -0.076753311 0)
(30.082469 -0.087853619 0)
(30.101848 -0.099482281 0)
(30.123433 -0.11166668 0)
(30.147207 -0.12445721 4.472999e-22)
(30.173201 -0.13788867 1.4908062e-22)
(30.201556 -0.15195902 0)
(30.232318 -0.16666499 8.9632033e-22)
(30.2652 -0.18208186 -2.9887923e-22)
(30.299771 -0.19837416 7.4786174e-22)
(30.336085 -0.21564232 -4.489402e-22)
(30.375086 -0.23374924 0)
(30.418135 -0.25242853 -5.9925718e-22)
(30.465929 -0.27160482 3.0019308e-22)
(30.517708 -0.29147189 6.0106163e-22)
(30.571437 -0.31252368 5.7543687e-25)
(30.625614 -0.33503673 0)
(30.68112 -0.35834692 7.5302638e-22)
(30.740019 -0.3821339 -7.5227029e-22)
(30.802962 -0.40788258 6.0305111e-22)
(30.869799 -0.43679431 0)
(30.942241 -0.46683129 6.6510764e-25)
(31.023116 -0.49442247 3.0249662e-22)
(31.111958 -0.51950632 1.5184469e-22)
(31.203006 -0.5469076 4.5503326e-22)
(31.289663 -0.58153683 0)
(31.371566 -0.62300758 0)
(31.456462 -0.66591986 3.0343079e-22)
(31.554142 -0.70521844 0)
(31.668139 -0.74053331 -7.6279894e-23)
(31.793077 -0.77564344 7.5893619e-23)
(31.91956 -0.8147516 -3.0555554e-22)
(32.041854 -0.85938436 -5.2239139e-25)
(32.161825 -0.90805169 -3.0470567e-22)
(32.28662 -0.95812968 6.1054117e-22)
(32.423013 -1.0081398 -9.7715688e-25)
(32.57291 -1.0586714 3.055239e-22)
(32.732929 -1.1115652 6.131588e-22)
(32.897656 -1.16844 -1.2308814e-24)
(33.063263 -1.2296792 3.0789783e-22)
(33.229051 -1.2944646 -6.1446668e-22)
(33.397 -1.3615208 0)
(33.570084 -1.4300034 0)
(33.75042 -1.499906 -6.1315072e-22)
(33.93842 -1.5721204 0)
(34.132924 -1.6480014 0)
(34.331817 -1.728714 0)
(34.532677 -1.8150298 0)
(34.733342 -1.9073117 0)
(34.93234 -2.0057071 -3.005433e-22)
(35.128508 -2.1108034 -7.4271901e-22)
(35.320857 -2.22355 4.4015212e-22)
(35.50811 -2.345135 -2.901722e-22)
(35.6878 -2.4766164 -2.86585e-22)
(35.855829 -2.6191931 2.8415175e-22)
(36.007122 -2.7744687 0)
(36.136496 -2.9451297 1.557734e-24)
(36.238563 -3.1343419 -2.6815951e-22)
(36.305702 -3.3433499 0)
(36.32849 -3.5713738 0)
(36.300812 -3.8291161 0)
(36.214757 -4.143164 0)
(36.04913 -4.5006582 0)
(35.788771 -4.8222729 0)
(35.418748 -5.1816393 2.0469998e-22)
(34.796201 -5.9558163 -1.8862084e-22)
(33.693128 -6.9401305 0)
(32.380926 -6.3124629 0)
(31.725201 -2.438089 0)
(32.348778 4.2987806 0)
(34.252371 12.186005 0)
(36.960737 19.774698 0)
(39.878056 26.106618 0)
(42.490695 30.814172 0)
(44.486867 33.895077 0)
(45.73566 35.546465 0)
(46.250887 36.04305 0)
(46.14607 35.690509 0)
(45.578802 34.770379 0)
(44.696438 33.501217 0)
(43.614378 32.035802 0)
(42.416289 30.473112 0)
(41.159868 28.876657 0)
(39.885633 27.28847 0)
(38.621567 25.734013 0)
(37.385212 24.229769 0)
(36.189827 22.785276 0)
(35.040979 21.404669 0)
(33.950332 20.088358 0)
(32.887988 18.83439 0)
(31.987963 17.661082 0)
(30.693177 16.227701 0)
(30.00006 -0.0048501307 0)
(30.000979 -0.014430741 0)
(30.0034 -0.024307692 0)
(30.007981 -0.034410613 0)
(30.014874 -0.04474559 0)
(30.024077 -0.05537329 2.9718784e-22)
(30.035477 -0.066368059 0)
(30.048856 -0.077783751 0)
(30.064071 -0.089649145 0)
(30.0812 -0.10198491 -2.9740324e-22)
(30.100423 -0.11482393 2.9749155e-22)
(30.121827 -0.12822382 -5.9519349e-22)
(30.1454 -0.14224266 -2.9795043e-22)
(30.171201 -0.15690323 0)
(30.199386 -0.17218832 -2.9799094e-22)
(30.229954 -0.18811289 -4.4747328e-22)
(30.262549 -0.20480148 2.9890577e-22)
(30.29675 -0.22242141 -1.3433877e-21)
(30.332769 -0.24099377 -5.9712615e-22)
(30.371709 -0.26031602 -4.4777563e-22)
(30.41489 -0.2801287 4.4909039e-22)
(30.462743 -0.30041255 -5.9843464e-22)
(30.514106 -0.32166489 0)
(30.566938 -0.34463303 6.0006883e-22)
(30.620402 -0.36921763 -5.9971673e-22)
(30.675454 -0.39472503 1.1998391e-21)
(30.733196 -0.42150299 6.0081601e-22)
(30.794388 -0.4504627 0)
(30.860887 -0.48070131 0)
(30.93549 -0.50972581 5.3925085e-25)
(31.018831 -0.53684881 7.5376106e-22)
(31.106939 -0.56519288 -3.019039e-22)
(31.193397 -0.59913639 -1.0578063e-21)
(31.274946 -0.6398099 -4.5318481e-22)
(31.355255 -0.68364586 3.0198832e-22)
(31.442784 -0.72562951 7.9125247e-25)
(31.544307 -0.76384704 -1.5066308e-22)
(31.659766 -0.80082577 -3.0265688e-22)
(31.782664 -0.84088427 0)
(31.905282 -0.88654009 3.036226e-22)
(32.024459 -0.93701653 3.0316416e-22)
(32.143471 -0.98955333 1.2156319e-21)
(32.268957 -1.0418306 -6.0827856e-22)
(32.406042 -1.0936259 -8.5500629e-25)
(32.555301 -1.1466363 -1.8270353e-21)
(32.713195 -1.2030215 -1.0725824e-24)
(32.875165 -1.2640066 -6.1147657e-22)
(33.038495 -1.3293618 6.105176e-22)
(33.203162 -1.3978286 6.1173403e-22)
(33.371077 -1.4680531 0)
(33.544563 -1.5393874 6.0952502e-22)
(33.724991 -1.6119997 1.2188073e-21)
(33.912273 -1.6866876 6.0794514e-22)
(34.105135 -1.7645214 6.0674191e-22)
(34.301688 -1.8464306 0)
(34.499896 -1.9329001 0)
(34.697739 -2.0240134 -5.9923081e-22)
(34.893417 -2.1198863 0)
(35.085487 -2.2209629 5.9183673e-22)
(35.272759 -2.3276936 -2.9324837e-22)
(35.453788 -2.4406388 2.9042395e-22)
(35.626065 -2.5606279 2.8745956e-22)
(35.785564 -2.6887593 -2.8300479e-22)
(35.927226 -2.8262015 -2.7861769e-22)
(36.045934 -2.9749841 2.7444661e-22)
(36.135729 -3.1366704 1.2289614e-24)
(36.187631 -3.3105273 0)
(36.191948 -3.4973106 -2.5245478e-22)
(36.144168 -3.7096321 0)
(36.036854 -3.9660261 0)
(35.844346 -4.2407991 0)
(35.539156 -4.4621432 0)
(35.095037 -4.7154301 0)
(34.404713 -5.3536422 1.8634431e-22)
(33.345473 -6.2225326 -1.6420194e-22)
(32.20082 -5.7263986 0)
(31.674418 -2.376175 0)
(32.217734 3.5504459 0)
(33.827194 10.650151 0)
(36.179809 17.733429 0)
(38.863855 23.949159 0)
(41.434759 28.875655 0)
(43.586085 32.409814 0)
(45.127186 34.631008 0)
(45.991439 35.701015 0)
(46.210742 35.833164 0)
(45.896876 35.273516 0)
(45.190266 34.249554 0)
(44.219027 32.939428 0)
(43.083268 31.467217 0)
(41.85331 29.914866 0)
(40.5805 28.338762 0)
(39.30129 26.774845 0)
(38.037859 25.246424 0)
(36.807439 23.768113 0)
(35.61878 22.347956 0)
(34.485976 20.989223 0)
(33.379254 19.693179 0)
(32.442572 18.481128 0)
(31.105486 16.999939 0)
(30.000064 -0.0056896324 0)
(30.000952 -0.016941235 0)
(30.00329 -0.028452654 0)
(30.007741 -0.04017243 0)
(30.014456 -0.052149551 0)
(30.023428 -0.064453988 -2.9708731e-22)
(30.034558 -0.07715929 2.9686985e-22)
(30.047645 -0.090327782 -2.9689647e-22)
(30.062556 -0.10400643 0)
(30.079362 -0.11823671 2.9723386e-22)
(30.098226 -0.1330698 -5.9435027e-22)
(30.119233 -0.14856607 1.1890364e-21)
(30.142394 -0.16477457 0)
(30.167802 -0.18170384 7.4353954e-22)
(30.195606 -0.19934089 2.9804562e-22)
(30.225732 -0.21773182 -1.4869936e-22)
(30.257769 -0.23701494 0)
(30.291372 -0.25730842 6.1924616e-25)
(30.326903 -0.27857263 7.4567663e-22)
(30.365546 -0.30063704 -1.482704e-22)
(30.408509 -0.32336372 1.1929607e-21)
(30.455861 -0.34686997 8.9678135e-22)
(30.5062 -0.37170651 -1.4932925e-21)
(30.557985 -0.39819433 0)
(30.610913 -0.4259603 1.6449589e-21)
(30.665489 -0.45494566 -1.048431e-21)
(30.722438 -0.48564065 -1.1965908e-21)
(30.78345 -0.51759878 -3.0009298e-22)
(30.851217 -0.54920376 -1.3826038e-24)
(30.927283 -0.57988186 9.8918847e-25)
(31.009802 -0.6117821 -9.0097346e-22)
(31.09407 -0.64826003 -3.01479e-22)
(31.175956 -0.69049838 1.2023495e-21)
(31.255472 -0.73600213 6.0124561e-22)
(31.337394 -0.7806548 0)
(31.428133 -0.82236796 -1.5080075e-22)
(31.531222 -0.86280696 1.5005638e-22)
(31.645002 -0.90583973 6.0311518e-22)
(31.764075 -0.95437121 0)
(31.883265 -1.0082733 -1.5104056e-22)
(32.001231 -1.0648677 -1.3604276e-21)
(32.121149 -1.1212534 -1.0072486e-24)
(32.248092 -1.1763863 0)
(32.385505 -1.231516 -9.066731e-25)
(32.533313 -1.2890289 2.0825578e-24)
(32.688504 -1.3508388 -7.59481e-22)
(32.847639 -1.4174438 1.5118431e-22)
(33.008956 -1.4880411 -6.0801811e-22)
(33.17273 -1.5612501 0)
(33.340489 -1.6360411 1.2124345e-21)
(33.513946 -1.7121313 -6.0712e-22)
(33.693983 -1.7897934 -1.8173022e-21)
(33.880267 -1.8694909 -6.0598975e-22)
(34.07156 -1.9517688 -6.0509272e-22)
(34.266161 -2.0370776 0)
(34.462236 -2.1256017 6.0026073e-22)
(34.657922 -2.2173053 1.1966427e-21)
(34.851318 -2.3121626 0)
(35.040727 -2.4100218 5.9001073e-22)
(35.224823 -2.5109722 0)
(35.402257 -2.6155244 0)
(35.570503 -2.7243308 -2.8702748e-22)
(35.725658 -2.8378321 2.838674e-22)
(35.863152 -2.956729 9.3660076e-25)
(35.977819 -3.0819698 -2.7205975e-22)
(36.06268 -3.2127519 2.6650657e-22)
(36.107875 -3.3466814 -2.5810918e-22)
(36.104945 -3.4869322 2.5074296e-22)
(36.051192 -3.6471341 -2.4010752e-22)
(35.936681 -3.8327052 0)
(35.727217 -4.0010854 -2.1827582e-22)
(35.384234 -4.09404 0)
(34.881089 -4.2216331 0)
(34.152838 -4.7217506 0)
(33.16008 -5.5027615 1.6158807e-22)
(32.185539 -5.1991414 -1.3064747e-22)
(31.811254 -2.38624 0)
(32.371377 2.8128517 0)
(33.807776 9.2402258 0)
(35.886951 15.86007 0)
(38.310505 21.918218 0)
(40.731828 26.956982 0)
(42.884775 30.823438 0)
(44.573041 33.51538 0)
(45.686145 35.120175 0)
(46.18977 35.761296 0)
(46.130527 35.616767 0)
(45.616993 34.895028 0)
(44.776103 33.786701 0)
(43.719348 32.44108 0)
(42.529116 30.95827 0)
(41.266964 29.410314 0)
(39.977798 27.848432 0)
(38.689745 26.303517 0)
(37.425576 24.795883 0)
(36.197645 23.338501 0)
(35.023174 21.938081 0)
(33.872496 20.598424 0)
(32.899674 19.342636 0)
(31.511778 17.801648 0)
(30.000048 -0.0065115819 0)
(30.000889 -0.019384221 0)
(30.003156 -0.032503383 0)
(30.007489 -0.045815981 2.9661144e-22)
(30.014052 -0.05937556 0)
(30.022845 -0.073245505 2.9650417e-22)
(30.033771 -0.087501331 -2.9675355e-22)
(30.046631 -0.10222211 2.9676281e-22)
(30.061303 -0.11747104 0)
(30.077856 -0.13329394 0)
(30.096454 -0.14973379 2.9685799e-22)
(30.11718 -0.1668401 -1.0385714e-21)
(30.140066 -0.18465692 4.4509034e-22)
(30.165221 -0.20319954 -4.4554308e-22)
(30.192769 -0.22248046 -5.9342989e-22)
(30.222584 -0.24256018 -1.4841065e-22)
(30.25425 -0.26353599 0)
(30.287496 -0.28548679 5.9495376e-22)
(30.322774 -0.30840058 0)
(30.361274 -0.33218277 4.4635719e-22)
(30.404078 -0.35678216 -7.4457168e-22)
(30.451041 -0.38239767 8.9343605e-22)
(30.50083 -0.40933671 -2.9714443e-22)
(30.552169 -0.43758792 5.9650273e-22)
(30.604532 -0.46726026 -2.6843515e-21)
(30.658154 -0.49888599 8.9368821e-22)
(30.714459 -0.53228099 1.4922505e-21)
(30.775965 -0.56600401 -2.9917785e-22)
(30.844642 -0.59911654 2.9809663e-22)
(30.920157 -0.63294804 2.392522e-21)
(30.999856 -0.67022697 0)
(31.080555 -0.71239103 0)
(31.160691 -0.7579814 5.9766117e-22)
(31.241427 -0.80379252 -3.0021191e-22)
(31.326117 -0.84765096 5.9807828e-22)
(31.418433 -0.89033247 0)
(31.520193 -0.93491004 0)
(31.630295 -0.98435634 -6.0036939e-22)
(31.745547 -1.0394651 1.507724e-22)
(31.862877 -1.0984661 -1.4992286e-22)
(31.981447 -1.1584236 1.2034164e-21)
(32.103204 -1.2173255 -6.0215915e-22)
(32.231358 -1.2752929 0)
(32.368184 -1.3342486 -6.0252556e-22)
(32.513695 -1.3965085 1.2061688e-21)
(32.665909 -1.4633863 0)
(32.822517 -1.5346989 1.2053099e-21)
(32.982378 -1.6092982 0)
(33.14566 -1.6859345 0)
(33.313338 -1.7640099 -1.207487e-21)
(33.486653 -1.8436155 1.2044318e-21)
(33.666333 -1.9251031 1.0552055e-21)
(33.852019 -2.0086267 3.011767e-22)
(34.042462 -2.0941503 1.0524502e-21)
(34.236 -2.1816359 1.2005086e-21)
(34.430916 -2.2711638 -6.0010976e-22)
(34.625476 -2.3625584 -5.9816399e-22)
(34.817737 -2.4554007 5.9414605e-22)
(35.006002 -2.5493659 -1.2720497e-24)
(35.189092 -2.6445265 0)
(35.365493 -2.741166 0)
(35.532733 -2.8393411 2.8718769e-22)
(35.687432 -2.9391083 0)
(35.825615 -3.0410923 6.6670316e-25)
(35.941901 -3.1447171 8.0908479e-22)
(36.027969 -3.2464377 -2.6233648e-22)
(36.073971 -3.3436112 2.5515311e-22)
(36.074147 -3.4426588 0)
(36.026358 -3.554901 7.9087141e-25)
(35.914717 -3.6678995 -2.2494791e-22)
(35.696091 -3.7239463 2.1431608e-22)
(35.326722 -3.6857737 0)
(34.790371 -3.6968788 0)
(34.067926 -4.0854201 0)
(33.179471 -4.8095578 0)
(32.38245 -4.7218356 1.2967557e-22)
(32.154602 -2.4425256 -9.9717144e-23)
(32.767047 2.0918658 0)
(34.124867 7.9364927 0)
(36.021119 14.148258 0)
(38.210854 20.034907 0)
(40.442345 25.120016 0)
(42.493381 29.216167 0)
(44.19956 32.274593 0)
(45.440843 34.335504 0)
(46.149697 35.465674 0)
(46.314543 35.766168 0)
(45.993906 35.396256 0)
(45.293895 34.537392 0)
(44.329277 33.355508 0)
(43.192434 31.973966 0)
(41.949908 30.478355 0)
(40.655555 28.933669 0)
(39.347144 27.382495 0)
(38.052401 25.851676 0)
(36.786763 24.360239 0)
(35.571758 22.91904 0)
(34.378065 21.534777 0)
(33.370709 20.233508 0)
(31.927332 18.628413 0)
(30.00006 -0.0073078294 0)
(30.000901 -0.021746547 0)
(30.003128 -0.036444818 1.4829464e-22)
(30.007364 -0.051327079 -4.4473119e-22)
(30.013787 -0.066449419 0)
(30.022399 -0.081892875 -2.9640591e-22)
(30.033094 -0.097749881 -2.9608307e-22)
(30.045684 -0.11410988 0)
(30.060063 -0.13103937 0)
(30.076314 -0.14858187 0)
(30.094597 -0.16677854 1.4823264e-22)
(30.114991 -0.1856867 -1.4736653e-22)
(30.137534 -0.2053618 -5.9294872e-22)
(30.162344 -0.22583482 -5.9239698e-22)
(30.189532 -0.24713429 -7.4022895e-22)
(30.218955 -0.2693097 1.4810464e-22)
(30.250187 -0.29244699 0)
(30.282975 -0.31664652 0)
(30.317829 -0.34193763 0)
(30.355967 -0.36822698 -8.891367e-22)
(30.398356 -0.39547534 -2.9648964e-22)
(30.444764 -0.42387018 -2.0792967e-21)
(30.493961 -0.45356742 8.9314888e-22)
(30.544569 -0.48468055 -1.4865961e-21)
(30.595826 -0.51765277 1.4875251e-21)
(30.648479 -0.55264437 -1.190558e-21)
(30.704896 -0.58867166 -2.3778324e-21)
(30.767399 -0.62453512 0)
(30.836376 -0.66062085 5.97001e-22)
(30.910308 -0.69896849 -1.7877708e-21)
(30.987241 -0.74129919 -2.9894662e-22)
(31.065944 -0.78726731 5.9672569e-22)
(31.146156 -0.83480109 -2.3858165e-21)
(31.228497 -0.88196176 -2.9767517e-22)
(31.314447 -0.92853712 -5.9757714e-22)
(31.406055 -0.97614658 2.9758994e-22)
(31.50502 -1.0270004 0)
(31.611565 -1.0824022 1.491984e-22)
(31.724235 -1.1420385 1.4903256e-22)
(31.840966 -1.2043529 0)
(31.960642 -1.2675201 5.9694544e-22)
(32.083923 -1.3305337 1.1963665e-21)
(32.212619 -1.3937689 1.1965173e-21)
(32.348352 -1.4586915 0)
(32.491539 -1.526891 0)
(32.641244 -1.5990826 -1.1976063e-21)
(32.796071 -1.6748207 -1.2005656e-21)
(32.955164 -1.7530647 0)
(33.118348 -1.8329864 0)
(33.286012 -1.914432 1.1970936e-21)
(33.459069 -1.9977977 -1.1993321e-21)
(33.638367 -2.0834574 1.1961857e-21)
(33.8238 -2.171257 1.1958622e-21)
(34.014173 -2.260639 1.4752675e-22)
(34.207855 -2.3510503 -1.1961517e-21)
(34.403143 -2.4421569 -1.4865237e-22)
(34.598192 -2.5336146 0)
(34.791223 -2.624751 -5.9427946e-22)
(34.98071 -2.7151257 -5.9121631e-22)
(35.16552 -2.8047936 0)
(35.344314 -2.8936453 5.7809275e-22)
(35.514855 -2.9811946 5.6880564e-22)
(35.674276 -3.0673104 5.5760761e-22)
(35.819079 -3.1520112 2.7285127e-22)
(35.943253 -3.2325297 -8.2342194e-25)
(36.037405 -3.3032423 7.740423e-22)
(36.092884 -3.3630221 2.4964406e-22)
(36.106763 -3.4209983 0)
(36.07517 -3.4815008 2.3056226e-22)
(35.97406 -3.5119182 2.1990448e-22)
(35.754183 -3.4460822 0)
(35.37514 -3.2770175 0)
(34.839214 -3.1881407 0)
(34.169174 -3.5001793 0)
(33.42383 -4.196933 0)
(32.819693 -4.3232739 0)
(32.731005 -2.5579212 9.9661341e-23)
(33.403632 1.3692954 0)
(34.738608 6.7084048 0)
(36.514504 12.577079 0)
(38.517483 18.31013 0)
(40.55999 23.421491 0)
(42.458352 27.681546 0)
(44.089409 31.019949 0)
(45.349961 33.446029 0)
(46.16658 35.004096 0)
(46.496168 35.740759 0)
(46.347283 35.75068 0)
(45.789035 35.183118 0)
(44.923139 34.201947 0)
(43.84512 32.952095 0)
(42.630404 31.534664 0)
(41.338814 30.024622 0)
(40.015467 28.478373 0)
(38.694606 26.932833 0)
(37.394861 25.411621 0)
(36.141915 23.93086 0)
(34.906628 22.501358 0)
(33.865817 21.154462 0)
(32.367001 19.48276 0)
(30.000053 -0.0080792247 0)
(30.000861 -0.024053101 0)
(30.003027 -0.040301872 -2.960451e-22)
(30.007168 -0.056733617 0)
(30.013448 -0.073406308 0)
(30.021869 -0.090409861 -2.9570837e-22)
(30.032332 -0.10783932 2.9597137e-22)
(30.044663 -0.12578232 5.9120936e-22)
(30.058776 -0.14430435 0)
(30.07476 -0.16345265 0)
(30.092761 -0.18327925 0)
(30.11285 -0.2038556 7.1026147e-25)
(30.135077 -0.22524272 0)
(30.159571 -0.24747759 -5.9045175e-22)
(30.186443 -0.27058264 1.184055e-21)
(30.215518 -0.29459991 1.0346467e-21)
(30.246339 -0.31964762 1.478026e-22)
(30.278685 -0.34584644 0)
(30.31317 -0.37317848 0)
(30.351045 -0.40151089 8.8845499e-22)
(30.393157 -0.43083754 2.9572079e-22)
(30.439201 -0.4613075 3.5548191e-21)
(30.4879 -0.4931296 2.3697822e-21)
(30.537735 -0.52667829 1.1869173e-21)
(30.588133 -0.56223324 -5.9395798e-22)
(30.640516 -0.59932142 -1.7778477e-21)
(30.697442 -0.63697231 1.7793641e-21)
(30.76029 -0.67504032 5.9202183e-22)
(30.828329 -0.71473816 0)
(30.900101 -0.75754197 0)
(30.974926 -0.80374637 5.9170181e-22)
(31.052774 -0.85224567 -2.7297026e-24)
(31.133416 -0.90166527 1.1869884e-21)
(31.216477 -0.95151332 1.1848876e-21)
(31.302357 -1.0023542 8.8870758e-22)
(31.392706 -1.0551501 2.9636082e-22)
(31.4896 -1.1106338 0)
(31.59403 -1.169092 0)
(31.705184 -1.2304677 0)
(31.821259 -1.2945414 0)
(31.940983 -1.3608949 -2.4371787e-24)
(32.064492 -1.4290587 -1.1924026e-21)
(32.192954 -1.4988647 -1.1924155e-21)
(32.327637 -1.570642 2.3802968e-21)
(32.469176 -1.6449602 0)
(32.617279 -1.7220661 3.5740835e-21)
(32.771107 -1.8016133 0)
(32.929846 -1.8830386 -2.3807715e-21)
(33.092939 -1.9661032 2.379907e-21)
(33.260352 -2.0510264 -3.5705984e-21)
(33.432866 -2.1383088 0)
(33.611657 -2.2281815 -1.190908e-21)
(33.797141 -2.320158 -1.1905405e-21)
(33.988313 -2.4132662 -1.1902456e-21)
(34.183322 -2.5065997 1.1871847e-21)
(34.380409 -2.5994285 1.1859536e-21)
(34.57772 -2.6910503 0)
(34.773335 -2.7808496 0)
(34.966233 -2.868749 0)
(35.155804 -2.954622 -1.1618132e-21)
(35.340636 -3.0375902 -6.8293207e-25)
(35.518629 -3.1167218 -5.615295e-22)
(35.687405 -3.1918076 -5.0182821e-25)
(35.843527 -3.2616241 5.3486802e-22)
(35.980258 -3.3210192 -5.2084317e-22)
(36.088138 -3.363584 -1.4141824e-25)
(36.160781 -3.3911107 1.2238364e-22)
(36.197205 -3.4131432 3.5257584e-22)
(36.189728 -3.4218714 0)
(36.106189 -3.3652319 0)
(35.895891 -3.1781205 0)
(35.530318 -2.8918801 0)
(35.034583 -2.7300256 0)
(34.463312 -3.0045313 0)
(33.892989 -3.7033301 0)
(33.493822 -4.0276936 0)
(33.542375 -2.7425015 0)
(34.269019 0.62127803 0)
(35.60031 5.5175167 0)
(37.300351 11.104018 0)
(39.166825 16.719546 0)
(41.04021 21.869227 0)
(42.773828 26.269716 0)
(44.275623 29.833419 0)
(45.473063 32.550327 0)
(46.305425 34.458331 0)
(46.724279 35.58737 0)
(46.704688 35.976758 0)
(46.274028 35.725866 0)
(45.506645 34.980828 0)
(44.492042 33.889958 0)
(43.312412 32.572124 0)
(42.030915 31.115772 0)
(40.698161 29.586611 0)
(39.356121 28.034256 0)
(38.027946 26.489297 0)
(36.74129 24.973228 0)
(35.467221 23.498741 0)
(34.394575 22.105931 0)
(32.839719 20.365127 0)
(30.000065 -0.0088325598 0)
(30.000869 -0.026325689 -2.9585874e-22)
(30.002993 -0.044091381 2.9600168e-22)
(30.007042 -0.062036922 0)
(30.013183 -0.080230121 -1.4754842e-22)
(30.02142 -0.098762205 4.4320995e-22)
(30.031656 -0.11773227 5.9037586e-22)
(30.04373 -0.13723756 -5.9095491e-22)
(30.057568 -0.15735388 0)
(30.073263 -0.17813709 1.4770499e-22)
(30.090949 -0.19964942 2.1296251e-25)
(30.110694 -0.22196349 4.432284e-22)
(30.132562 -0.24514037 -1.0321152e-21)
(30.156702 -0.26922194 1.034003e-21)
(30.183221 -0.29422916 1.475439e-21)
(30.211898 -0.32021898 -2.9521628e-21)
(30.242241 -0.3473246 -6.4874655e-25)
(30.274114 -0.3756398 -1.1807043e-21)
(30.30824 -0.40510037 2.6548995e-21)
(30.34583 -0.43561936 -2.9517329e-21)
(30.387617 -0.46724329 -1.771208e-21)
(30.433192 -0.5001149 -4.7276085e-21)
(30.481131 -0.53458211 -1.7743544e-21)
(30.529992 -0.57108735 -5.9027428e-22)
(30.579713 -0.60953705 0)
(30.632082 -0.64914161 2.3659037e-21)
(30.689194 -0.68934648 -2.3622413e-21)
(30.751551 -0.73066111 -5.924893e-22)
(30.81818 -0.77424241 2.9539774e-21)
(30.888312 -0.82073006 -2.3644739e-21)
(30.962138 -0.86972945 -3.5497995e-21)
(31.039816 -0.92042273 -5.9332662e-22)
(31.120575 -0.97247134 -2.7742783e-24)
(31.203427 -1.0262071 -4.9014374e-24)
(31.288641 -1.0820552 1.1804517e-21)
(31.378126 -1.1399501 0)
(31.474142 -1.1994891 2.9670365e-22)
(31.577571 -1.2605786 -2.9505721e-22)
(31.687378 -1.3238315 1.1831954e-21)
(31.801806 -1.3902351 0)
(31.919959 -1.460365 -1.1861844e-21)
(32.042308 -1.5339999 -2.366801e-21)
(32.170016 -1.6104171 0)
(32.304102 -1.6889722 -5.4355685e-24)
(32.445061 -1.7693879 0)
(32.592723 -1.8515298 -2.3721408e-21)