# vtk DataFile Version 3.0
Time Step 64, Physical Time = 0.000640s, Residual = 5.27e-03
ASCII
DATASET UNSTRUCTURED_GRID
POINTS 5000 float
0.318712 0.385257 0.000000
-0.318712 0.385257 0.000000
-0.318712 -0.385257 0.000000
0.318712 -0.385257 0.000000
0.093691 0.491144 0.000000
-0.093691 0.491144 0.000000
-0.093691 -0.491144 0.000000
0.093691 -0.491144 0.000000
0.404508 0.293893 0.000000
-0.404508 0.293893 0.000000
-0.404508 -0.293893 0.000000
0.404508 -0.293893 0.000000
0.438153 0.240877 0.000000
-0.438153 0.240877 0.000000
-0.438153 -0.240877 0.000000
0.438153 -0.240877 0.000000
0.500000 0.000000 0.000000
-0.500000 -0.000000 0.000000
0.364484 0.342274 0.000000
-0.364484 0.342274 0.000000
-0.364484 -0.342274 0.000000
0.364484 -0.342274 0.000000
0.496057 0.062667 0.000000
-0.496057 0.062667 0.000000
-0.496057 -0.062667 0.000000
0.496057 -0.062667 0.000000
0.212890 0.452414 0.000000
-0.212890 0.452414 0.000000
-0.212890 -0.452414 0.000000
0.212890 -0.452414 0.000000
0.154508 0.475528 0.000000
-0.154508 0.475528 0.000000
-0.154508 -0.475528 0.000000
0.154508 -0.475528 0.000000
0.267913 0.422164 0.000000
-0.267913 0.422164 0.000000
-0.267913 -0.422164 0.000000
0.267913 -0.422164 0.000000
0.031395 0.499013 0.000000
-0.031395 0.499013 0.000000
-0.031395 -0.499013 0.000000
0.031395 -0.499013 0.000000
0.464888 0.184062 0.000000
-0.464888 0.184062 0.000000
-0.464888 -0.184062 0.000000
0.464888 -0.184062 0.000000
0.484292 0.124345 0.000000
-0.484292 0.124345 0.000000
-0.484292 -0.124345 0.000000
0.484292 -0.124345 0.000000
-0.031454 0.499951 0.000000
0.438977 0.241329 0.000000
-0.268417 0.422957 0.000000
0.365169 0.342917 0.000000
-0.496990 -0.062784 0.000000
0.319311 -0.385981 0.000000
0.405269 0.294445 0.000000
-0.093867 0.492067 0.000000
0.500940 -0.000000 0.000000
-0.213290 0.453264 0.000000
-0.154799 0.476422 0.000000
0.031454 0.499951 0.000000
0.465762 0.184408 0.000000
0.319311 0.385981 0.000000
0.365169 -0.342917 0.000000
0.405269 -0.294445 0.000000
-0.365169 0.342917 0.000000
-0.319311 0.385981 0.000000
0.268417 0.422957 0.000000
0.213290 0.453264 0.000000
-0.319311 -0.385981 0.000000
0.154799 -0.476422 0.000000
-0.485202 -0.124579 0.000000
0.154799 0.476422 0.000000
0.268417 -0.422957 0.000000
0.093867 0.492067 0.000000
-0.031454 -0.499951 0.000000
-0.500940 0.000000 0.000000
0.438977 -0.241329 0.000000
-0.438977 -0.241329 0.000000
0.093867 -0.492067 0.000000
-0.485202 0.124579 0.000000
0.485202 0.124579 0.000000
-0.496990 0.062784 0.000000
0.213290 -0.453264 0.000000
0.031454 -0.499951 0.000000
0.496990 -0.062784 0.000000
0.465762 -0.184408 0.000000
-0.465762 -0.184408 0.000000
-0.213290 -0.453264 0.000000
-0.093867 -0.492067 0.000000
-0.405269 -0.294445 0.000000
0.496990 0.062784 0.000000
0.485202 -0.124579 0.000000
-0.154799 -0.476422 0.000000
-0.365169 -0.342917 0.000000
-0.465762 0.184408 0.000000
-0.438977 0.241329 0.000000
-0.405269 0.294445 0.000000
-0.268417 -0.422957 0.000000
-0.031523 0.501039 0.000000
0.439932 0.241854 0.000000
-0.269001 0.423877 0.000000
0.365964 0.343663 0.000000
-0.498071 -0.062921 0.000000
0.320005 -0.386820 0.000000
0.406150 0.295085 0.000000
-0.094071 0.493137 0.000000
0.502029 -0.000000 0.000000
-0.213754 0.454250 0.000000
-0.155136 0.477458 0.000000
0.031523 0.501039 0.000000
0.466775 0.184809 0.000000
0.365964 -0.343663 0.000000
0.406150 -0.295085 0.000000
0.320005 0.386820 0.000000
-0.365964 0.343663 0.000000
-0.320005 0.386820 0.000000
0.269001 0.423877 0.000000
0.213754 0.454250 0.000000
-0.320005 -0.386820 0.000000
0.155136 -0.477458 0.000000
-0.486257 -0.124850 0.000000
0.155136 0.477458 0.000000
0.269001 -0.423877 0.000000
0.094071 0.493137 0.000000
-0.031523 -0.501039 0.000000
-0.502029 0.000000 0.000000
0.439932 -0.241854 0.000000
-0.439932 -0.241854 0.000000
0.094071 -0.493137 0.000000
-0.486257 0.124850 0.000000
0.486257 0.124850 0.000000
-0.498071 0.062921 0.000000
0.213754 -0.454250 0.000000
0.031523 -0.501039 0.000000
0.466775 -0.184809 0.000000
0.498071 -0.062921 0.000000
-0.466775 -0.184809 0.000000
-0.213754 -0.454250 0.000000
-0.094071 -0.493137 0.000000
-0.406150 -0.295085 0.000000
0.498071 0.062921 0.000000
-0.155136 -0.477458 0.000000
0.486257 -0.124850 0.000000
-0.365964 -0.343663 0.000000
-0.466775 0.184809 0.000000
-0.439932 0.241854 0.000000
-0.406150 0.295085 0.000000
-0.269001 -0.423877 0.000000
-0.031604 0.502329 0.000000
0.441064 0.242477 0.000000
-0.269693 0.424969 0.000000
0.366906 0.344547 0.000000
-0.499353 -0.063083 0.000000
0.320829 -0.387816 0.000000
0.407196 0.295845 0.000000
-0.094313 0.494407 0.000000
0.503322 -0.000000 0.000000
-0.214304 0.455419 0.000000
-0.155535 0.478688 0.000000
0.031604 0.502329 0.000000
0.467977 0.185285 0.000000
0.366906 -0.344547 0.000000
0.407196 -0.295845 0.000000
0.320829 0.387816 0.000000
0.269693 0.424969 0.000000
-0.366906 0.344547 0.000000
-0.320829 0.387816 0.000000
0.214304 0.455419 0.000000
-0.320829 -0.387816 0.000000
0.155535 -0.478688 0.000000
-0.487509 -0.125171 0.000000
0.155535 0.478688 0.000000
0.269693 -0.424969 0.000000
-0.031604 -0.502329 0.000000
0.094313 0.494407 0.000000
-0.503322 0.000000 0.000000
0.441064 -0.242477 0.000000
-0.441064 -0.242477 0.000000
-0.487509 0.125171 0.000000
0.094313 -0.494407 0.000000
0.487509 0.125171 0.000000
-0.499353 0.063083 0.000000
0.214304 -0.455419 0.000000
0.031604 -0.502329 0.000000
0.467977 -0.185285 0.000000
0.499353 -0.063083 0.000000
-0.467977 -0.185285 0.000000
-0.214304 -0.455419 0.000000
-0.094313 -0.494407 0.000000
-0.407196 -0.295845 0.000000
0.499353 0.063083 0.000000
-0.155535 -0.478688 0.000000
0.487509 -0.125171 0.000000
-0.467977 0.185285 0.000000
-0.366906 -0.344547 0.000000
-0.441064 0.242477 0.000000
-0.407196 0.295845 0.000000
-0.269693 -0.424969 0.000000
-0.031700 0.503862 0.000000
0.442411 0.243217 0.000000
-0.270517 0.426266 0.000000
0.368026 0.345599 0.000000
-0.500877 -0.063276 0.000000
0.321809 -0.389000 0.000000
0.408439 0.296748 0.000000
-0.094601 0.495916 0.000000
0.504858 -0.000000 0.000000
-0.214958 0.456810 0.000000
-0.156010 0.480149 0.000000
0.031700 0.503862 0.000000
0.469405 0.185851 0.000000
0.368026 -0.345599 0.000000
0.408439 -0.296748 0.000000
0.321809 0.389000 0.000000
0.270517 0.426266 0.000000
-0.368026 0.345599 0.000000
-0.321809 0.389000 0.000000
0.214958 0.456810 0.000000
-0.321809 -0.389000 0.000000
0.156010 -0.480149 0.000000
0.270517 -0.426266 0.000000
-0.488997 -0.125553 0.000000
0.156010 0.480149 0.000000
-0.031700 -0.503862 0.000000
0.094601 0.495916 0.000000
-0.504858 0.000000 0.000000
0.442411 -0.243217 0.000000
-0.442411 -0.243217 0.000000
-0.488997 0.125553 0.000000
0.094601 -0.495916 0.000000
0.488997 0.125553 0.000000
-0.500877 0.063276 0.000000
0.214958 -0.456810 0.000000
0.031700 -0.503862 0.000000
0.469405 -0.185851 0.000000
0.500877 -0.063276 0.000000
-0.469405 -0.185851 0.000000
-0.214958 -0.456810 0.000000
-0.094601 -0.495916 0.000000
-0.408439 -0.296748 0.000000
-0.469405 0.185851 0.000000
0.500877 0.063276 0.000000
-0.156010 -0.480149 0.000000
0.488997 -0.125553 0.000000
-0.368026 -0.345599 0.000000
-0.442411 0.243217 0.000000
-0.408439 0.296748 0.000000
-0.270517 -0.426266 0.000000
-0.031815 0.505686 0.000000
0.444012 0.244098 0.000000
-0.271496 0.427809 0.000000
0.369358 0.346850 0.000000
-0.502691 -0.063505 0.000000
0.322974 -0.390408 0.000000
0.409918 0.297823 0.000000
-0.094943 0.497711 0.000000
0.506686 -0.000000 0.000000
-0.215736 0.458463 0.000000
-0.156575 0.481887 0.000000
0.031815 0.505686 0.000000
0.369358 -0.346850 0.000000
0.409918 -0.297823 0.000000
0.471105 0.186524 0.000000
0.322974 0.390408 0.000000
0.271496 0.427809 0.000000
-0.369358 0.346850 0.000000
-0.322974 0.390408 0.000000
0.215736 0.458463 0.000000
0.156575 -0.481887 0.000000
-0.322974 -0.390408 0.000000
0.271496 -0.427809 0.000000
-0.490768 -0.126008 0.000000
0.156575 0.481887 0.000000
-0.031815 -0.505686 0.000000
0.094943 0.497711 0.000000
-0.506686 0.000000 0.000000
0.444012 -0.244098 0.000000
-0.490768 0.126008 0.000000
-0.444012 -0.244098 0.000000
0.094943 -0.497711 0.000000
0.490768 0.126008 0.000000
-0.502691 0.063505 0.000000
0.215736 -0.458463 0.000000
0.031815 -0.505686 0.000000
0.471105 -0.186524 0.000000
-0.471105 -0.186524 0.000000
0.502691 -0.063505 0.000000
-0.215736 -0.458463 0.000000
-0.094943 -0.497711 0.000000
-0.409918 -0.297823 0.000000
-0.471105 0.186524 0.000000
0.502691 0.063505 0.000000
-0.156575 -0.481887 0.000000
0.490768 -0.126008 0.000000
-0.369358 -0.346850 0.000000
-0.444012 0.244098 0.000000
-0.409918 0.297823 0.000000
-0.271496 -0.427809 0.000000
-0.031952 0.507855 0.000000
0.445917 0.245145 0.000000
-0.272661 0.429644 0.000000
0.370943 0.348338 0.000000
-0.504847 -0.063777 0.000000
0.324359 -0.392083 0.000000
0.411676 0.299100 0.000000
-0.095351 0.499846 0.000000
0.508859 -0.000000 0.000000
-0.216662 0.460430 0.000000
-0.157246 0.483954 0.000000
0.031952 0.507855 0.000000
0.370943 -0.348338 0.000000
0.411676 -0.299100 0.000000
0.324359 0.392083 0.000000
0.473126 0.187324 0.000000
0.272661 0.429644 0.000000
-0.370943 0.348338 0.000000
-0.324359 0.392083 0.000000
0.216662 0.460430 0.000000
0.157246 -0.483954 0.000000
-0.324359 -0.392083 0.000000
0.272661 -0.429644 0.000000
0.157246 0.483954 0.000000
-0.492873 -0.126548 0.000000
-0.031952 -0.507855 0.000000
0.095351 0.499846 0.000000
0.445917 -0.245145 0.000000
-0.508859 0.000000 0.000000
-0.492873 0.126548 0.000000
-0.445917 -0.245145 0.000000
0.095351 -0.499846 0.000000
-0.504847 0.063777 0.000000
0.216662 -0.460430 0.000000
0.492873 0.126548 0.000000
0.031952 -0.507855 0.000000
0.473126 -0.187324 0.000000
-0.473126 -0.187324 0.000000
0.504847 -0.063777 0.000000
-0.216662 -0.460430 0.000000
-0.095351 -0.499846 0.000000
-0.473126 0.187324 0.000000
-0.411676 -0.299100 0.000000
-0.157246 -0.483954 0.000000
0.504847 0.063777 0.000000
0.492873 -0.126548 0.000000
-0.370943 -0.348338 0.000000
-0.445917 0.245145 0.000000
-0.411676 0.299100 0.000000
-0.272661 -0.429644 0.000000
0.318712 0.385257 0.100000
-0.318712 0.385257 0.100000
[...]
POINT_DATA 5000
SCALARS pressure float 1
LOOKUP_TABLE default
101685.981350
101685.981350
101685.981350
101685.981350
101685.981350
101685.981350
101685.981350
101685.981350
101685.981350
101685.981350
101685.981350
101685.981350
101685.981350
101685.981350
101685.981350
101685.981350
101325.000000
101325.000000
101325.000000
101325.000000
101325.000000
101325.000000
101325.000000
101325.000000
101325.000000
101325.000000
101325.000000
101325.000000
101325.000000
101325.000000
101325.000000
101325.000000
101325.000000
101325.000000
101325.000000
101325.000000
101325.000000
101325.000000
101325.000000
101325.000000
101325.000000
101325.000000
101325.000000
101325.000000
101325.000000
101325.000000
101325.000000
101325.000000
101325.000000
101325.000000
101323.921939
101324.748806
101324.228420
101324.492816
101324.982998
101324.357432
101324.626065
101323.955675
101325.000000
101324.113885
101324.021025
101323.921939
101324.853328
101324.357432
101324.492816
101324.626065
101324.492816
101324.357432
101324.228420
101324.113885
101324.357432
101324.021025
101324.933062
101324.021025
101324.228420
101323.955675
101323.921939
101325.000000
101324.748806
101324.748806
101323.955675
101324.933062
101324.933062
101324.982998
101324.113885
101323.921939
101324.982998
101324.853328
101324.853328
101324.113885
101323.955675
101324.626065
101324.982998
101324.933062
101324.021025
101324.492816
101324.853328
101324.748806
101324.626065
101324.228420
101322.679417
101324.459292
101323.339132
101323.908260
101324.963403
101323.616838
101324.195085
101322.752034
101325.000000
101323.092591
101322.892705
101322.679417
101324.684280
101323.908260
101324.195085
101323.616838
101323.908260
101323.616838
101323.339132
101323.092591
101323.616838
101322.892705
101324.855912
101322.892705
101323.339132
101322.752034
101322.679417
101325.000000
101324.459292
101324.459292
101322.752034
101324.855912
101324.855912
101324.963403
101323.092591
101322.679417
101324.684280
101324.963403
101324.684280
101323.092591
101322.752034
101324.195085
101324.963403
101322.892705
101324.855912
101323.908260
101324.684280
101324.459292
101324.195085
101323.339132
101321.215708
101324.118240
101322.291539
101323.219643
101324.940319
101322.744408
101323.687384
101321.334127
101325.000000
101321.889491
101321.563526
101321.215707
101324.485139
101323.219643
101323.687384
101322.744408
101322.291539
101323.219643
101322.744408
101321.889491
101322.744408
101321.563526
101324.765028
101321.563526
101322.291539
101321.215707
101321.334127
101325.000000
101324.118240
101324.118240
101324.765028
101321.334127
101324.765028
101324.940319
101321.889491
101321.215707
101324.485139
101324.940319
101324.485139
101321.889491
101321.334127
101323.687384
101324.940319
101321.563526
101324.765028
101324.485139
101323.219643
101324.118240
101323.687384
101322.291539
101319.490424
101323.716240
101321.056733
101322.407967
101324.913111
101321.716069
101323.088954
101319.662832
101325.000000
101320.471389
101319.996816
101319.490424
101324.250411
101322.407967
101323.088954
101321.716069
101321.056733
101322.407967
101321.716069
101320.471389
101321.716069
101319.996816
101321.056733
101324.657902
101319.996816
101319.490424
101319.662832
101325.000000
101323.716240
101323.716240
101324.657902
101319.662832
101324.657902
101324.913111
101320.471389
101319.490424
101324.250411
101324.913111
101324.250411
101320.471389
101319.662832
101323.088954
101324.250411
101324.913111
101319.996816
101324.657902
101322.407967
101323.716240
101323.088954
101321.056733
101317.458724
101323.242843
101319.602622
101321.452134
101324.881070
101320.505093
101322.384240
101317.694709
101325.000000
101318.801428
101318.151852
101317.458724
101321.452134
101322.384240
101323.973994
101320.505093
101319.602622
101321.452134
101320.505093
101318.801428
101318.151852
101320.505093
101319.602622
101324.531751
101318.151852
101317.458724
101317.694709
101325.000000
101323.242843
101324.531751
101323.242843
101317.694709
101324.531751
101324.881070
101318.801428
101317.458724
101323.973994
101323.973994
101324.881070
101318.801428
101317.694709
101322.384240
101323.973994
101324.881070
101318.151852
101324.531751
101321.452134
101323.242843
101322.384240
101319.602622
101315.071085
101322.686511
101317.893762
101320.328847
101324.843415
101319.081963
101321.556066
101315.381785
101325.000000
101316.838902
101315.983664
101315.071085
101320.328847
101321.556066
101319.081963
101323.649150
101317.893762
101320.328847
101319.081963
101316.838902
101315.983664
101319.081963
101317.893762
101315.983664
101324.383499
101315.071085
101315.381785
101322.686511
101325.000000
101324.383499
101322.686511
101315.381785
101324.843415
101316.838902
101324.383499
101315.071085
101323.649150
101323.649150
101324.843415
101316.838902
101315.381785
101323.649150
101321.556066
101315.983664
101324.843415
101324.383499
101320.328847
101322.686511
101321.556066
101317.893762
101685.981350
101685.981350
101685.981350
101685.981350
101685.981350
101685.981350
101685.981350
101685.981350
101685.981350
101685.981350
101685.981350
101685.981350
101685.981350
101685.981350
101685.981350
101685.981350
101325.000000
101325.000000
101325.000000
101325.000000
101325.000000
101325.000000
101325.000000
101325.000000
101325.000000
101325.000000
101325.000000
101325.000000
101325.000000
101325.000000
101325.000000
101325.000000
101325.000000
101325.000000
101325.000000
101325.000000
101325.000000
101325.000000
101325.000000
101325.000000
101325.000000
101325.000000
101325.000000
101325.000000
101325.000000
101325.000000
101325.000000
101325.000000
101325.000000
101325.000000
101323.921939
101324.748806
101323.955675
101324.626065
101324.626065
101324.021025
101324.492816
101324.021025
101324.228420
101324.113885
101324.228420
101324.357432
101324.748806
101323.921939
101324.982998
101324.021025
101324.492816
101324.853328
101324.933062
101324.113885
101324.357432
101323.955675
101324.357432
101324.228420
101324.933062
101324.748806
101325.000000
101324.113885
101324.933062
101323.955675
101324.113885
101324.853328
101324.853328
101325.000000
101324.982998
101324.492816
101323.921939
101323.921939
101324.357432
101324.982998
101324.748806
101324.853328
101324.626065
101324.982998
101324.021025
101323.955675
101324.228420
101324.933062
101324.492816
101324.626065
101312.272784
101322.034492
101319.012359
101315.890986
101324.799284
101317.414062
101320.585450
101312.671050
101325.000000
101314.538831
101313.442558
101312.272784
101319.012359
101320.585450
101317.414062
101323.268436
101315.890986
101314.538831
101319.012359
101317.414062
101313.442558
101317.414062
101315.890986
101313.442558
101324.209749
101312.272784
101312.671050
101322.034492
101325.000000
101324.209749
101322.034492
101312.671050
101314.538831
101324.799284
101324.209749
101312.272784
101323.268436
101323.268436
101324.799284
101314.538831
101323.268436
101312.671050
101320.585450
101313.442558
101324.799284
101324.209749
101319.012359
101322.034492
101320.585450
101315.890986
101322.679417
101324.459292
101322.752034
101324.195085
101324.195085
101323.908260
101322.892705
101322.892705
101323.339132
101323.092591
101323.339132
101323.616838
101324.459292
101322.679417
101324.963403
101322.892705
101323.908260
101324.684280
101324.855912
101323.092591
101323.616838
101322.752034
101323.616838
101323.339132
101324.855912
101324.459292
101323.092591
101325.000000
101324.855912
101322.752034
101323.092591
101324.684280
101324.684280
101324.963403
101325.000000
101323.908260
101322.679417
101322.679417
101323.616838
101324.963403
101324.459292
101324.684280
101324.195085
101324.963403
101322.892705
101322.752034
101323.339132
101324.855912
101323.908260
101324.195085
101321.215707
101324.118240
101321.334127
101323.687384
101323.687384
101323.219643
101321.563526
101321.563526
101322.291539
101321.889491
101322.291539
101322.744408
101324.118240
101324.940319
101321.215707
101321.563526
101323.219643
101324.765028
101324.485139
101321.889491
101322.744408
101321.334127
101322.744408
101322.291539
101324.765028
101324.118240
101321.889491
101325.000000
101324.765028
101321.334127
101321.889491
101324.485139
101324.485139
101324.940319
101325.000000
101323.219643
101321.215707
101321.215707
101322.744408
101324.940319
101324.118240
101324.485139
101323.687384
101324.940319
101321.563526
101321.334127
101322.291539
101324.765028
101323.219643
101323.687384
101309.000890
101321.272123
101317.473065
101313.549254
101324.747684
101315.463880
101319.450564
101309.501542
101325.000000
101311.849489
101310.471388
101309.000890
101319.450564
101317.473065
101315.463880
101322.823288
101313.549254
101311.849489
101317.473065
101315.463880
101310.471388
101313.549254
101315.463880
101310.471388
101324.006592
101309.000890
101321.272123
101309.501542
101325.000000
101324.006592
101321.272123
101309.501542
101311.849489
101324.747684
101324.006592
101309.000890
101322.823288
101322.823288
101324.747684
101311.849489
101322.823288
101309.501542
101319.450564
101310.471388
101324.747684
101321.272123
101324.006592
101317.473065
101313.549254
101319.450564
101319.490424
101323.716240
101319.662832
101323.088954
101323.088954
101322.407967
101319.996816
101319.996816
101321.056733
101321.056733
101320.471389
101321.716069
101323.716240
101324.913111
101319.490424
101319.996816
101322.407967
101324.657902
101324.250411
101320.471389
101321.716069
101319.662832
101321.716069
101321.056733
101324.657902
101323.716240
101320.471389
101325.000000
101324.657902
101319.662832
101320.471389
101324.250411
101324.250411
101324.913111
101325.000000
101322.407967
101319.490424
101319.490424
101321.716069
101324.913111
101323.716240
101324.250411
101323.088954
101324.913111
101319.996816
101319.662832
101321.056733
101324.657902
101322.407967
101323.088954
101317.458724
101323.242843
101322.384240
101317.694709
101322.384240
101321.452134
101318.151852
101318.151852
101319.602622
101319.602622
101318.801428
101320.505093
101323.242843
101324.881070
101318.151852
101317.458724
101321.452134
101324.531751
101318.801428
101323.973994
101320.505093
101317.694709
101319.602622
101320.505093
101324.531751
101323.242843
101318.801428
101325.000000
101317.694709
101324.531751
101318.801428
101323.973994
101323.973994
101324.881070
101325.000000
101321.452134
101317.458724
101317.458724
101320.505093
101324.881070
101323.242843
101323.973994
101322.384240
101318.151852
101317.694709
101324.881070
101319.602622
101324.531751
101321.452134
101322.384240
101305.182237
101320.382357
101315.676543
101310.816200
101324.687462
101313.187808
101318.126029
101305.802384
101325.000000
101308.710737
101307.003712
101305.182237
101318.126029
101315.676543
101313.187808
101310.816200
101322.303752
101308.710737
101315.676543
101313.187808
101307.003712
101310.816200
101313.187808
101307.003712
101323.769486
101305.182237
101320.382357
101305.802384
101325.000000
101323.769486
101305.802384
101320.382357
101308.710737
101324.687462
101323.769486
101305.182237
101322.303752
101322.303752
101322.303752
101308.710736
101324.687462
101305.802384
101307.003712
101318.126029
101324.687462
101320.382357
101323.769486
101315.676543
101310.816200
101318.126029
101315.071085
101322.686511
101321.556066
101315.381785
101321.556066
101320.328847
101315.983664
101315.983664
101317.893762
101317.893762
101316.838902
101319.081963
101322.686511
101324.843415
101315.983664
101315.071085
101320.328847
101324.383499
101316.838902
101323.649150
101319.081963
101317.893762
101315.381785
101319.081963
101324.383499
101322.686511
101316.838902
101325.000000
101315.381785
101324.383499
101316.838902
101323.649150
101323.649150
101324.843415
101325.000000
101320.328847
101315.071085
101315.071085
101319.081963
101323.649150
101322.686511
101324.843415
101321.556066
101315.983664
101315.381785
101317.893762
101324.843415
101324.383499
101320.328847
101321.556066
101312.272784
101322.034492
101320.585450
101320.585450
101319.012359
101312.671050
101313.442558
101313.442558
101315.890986
101315.890986
101314.538831
101317.414062
101322.034492
101324.799284
101313.442558
101312.272784
101319.012359
101324.209749
101314.538831
101323.268436
101317.414062
101315.890986
101312.671050
101324.209749
101322.034492
101317.414062
101314.538831
101312.671050
101325.000000
101314.538831
101324.209749
101323.268436
101323.268436
101324.799284
101325.000000
101312.272784
101319.012359
101312.272784
101317.414062
101323.268436
101322.034492
101324.799284
101320.585450
101313.442558
101312.671050
101315.890986
101324.799284
101324.209749
101319.012359
101320.585450
101300.752660
101319.350242
101313.592606
101307.645901
101324.617605
101310.547600
101316.589591
101301.511419
101325.000000
101305.069834
101302.981262
101300.752660
101316.589591
101313.592606
101310.547600
101307.645901
101305.069834
101321.701099
101302.981262
101313.592606
101310.547600
101307.645901
101302.981262
101310.547600
101323.494447
101319.350242
101300.752660
101301.511419
101325.000000
101323.494447
101301.511419
101319.350242
101305.069834
101324.617605
101323.494447
101300.752660
101321.701099
101321.701099
101321.701099
101305.069834
101324.617605
101301.511419
101302.981262
101316.589591
101319.350242
101324.617605
101323.494447
101313.592606
101307.645901
101316.589591
101309.000890
101321.272123
101319.450564
101319.450564
101317.473065
101310.471388
101309.501542
101310.471388
101313.549254
101313.549254
101315.463880
101311.849489
101321.272123
101310.471388
101324.747684
101309.000890
101317.473065
101324.006592
101311.849489
101322.823288
101315.463880
101313.549254
101309.501542
101321.272123
101324.006592
101315.463880
101311.849489
101309.501542
101311.849489
101325.000000
101324.006592
101322.823288
101322.823288
101324.747684
101325.000000
101309.000890
101309.000890
101317.473065
101322.823288
101315.463880
101321.272123
101324.747684
101319.450564
101310.471388
101309.501542
101313.549254
101324.006592
101324.747684
101317.473065
101319.450564
101295.639361
101318.158817
101311.187006
101303.986254
101324.536965
101307.499866
101314.815997
101296.558128
101325.000000
101298.337933
101300.866944
101295.639361
101314.815997
101311.187005
101307.499866
101303.986254
101300.866944
101321.005424
101298.337933
101303.986254
101311.187005
101307.499866
101298.337933
101323.176955
101318.158817
101307.499866
101295.639361
101296.558128
101323.176955
101325.000000
101296.558128
101318.158817
101300.866944
101324.536965
101295.639361
101323.176955
101321.005424
101321.005424
101321.005424
101300.866944
101296.558128
101324.536965
101298.337933
101314.815997
101318.158817
101324.536965
101323.176955
101311.187005
101303.986254
101314.815997
101305.182237
101320.382357
101318.126029
101318.126029
101315.676543
101307.003712
101305.802384
101307.003712
101310.816200
101310.816200
101313.187808
101308.710737
101320.382357
101307.003712
101324.687462
101315.676543
101323.769486
101305.182237
101308.710737
101322.303752
101313.187808
101310.816200
101320.382357
101305.802384
101323.769486
101308.710737
101313.187808
101308.710737
101305.802384
101325.000000
101323.769486
101322.303752
101322.303752
101324.687462
101325.000000
101305.182237
101305.182237
101315.676543
101322.303752
101313.187808
101320.382357
101324.687462
101307.003712
101318.126029
101305.802384
101310.816200
101323.769486
101324.687462
101315.676543
101318.126029
101300.752660
101319.350242
101316.589591
101302.981263
101313.592606
101316.589591
101301.511419
101302.981263
101307.645901
101307.645901
101310.547600
101319.350242
101305.069834
101302.981262
101324.617605
101313.592606
101323.494447
101300.752660
101305.069834
101310.547600
101307.645901
101321.701099
101319.350242
101301.511419
101323.494447
101305.069834
101305.069834
101310.547600
101301.511419
101325.000000
101323.494447
101321.701099
101321.701099
101324.617605
101300.752660
101300.752660
101325.000000
101321.701099
101313.592606
101310.547600
101319.350242
101324.617605
101302.981262
101307.645901
101301.511419
101316.589591
101323.494447
101324.617605
101313.592606
101316.589591
101289.764765
101316.790005
101308.423245
101299.781739
101303.998368
101324.444319
101312.778340
101290.867363
101325.000000
101293.003278
101296.038304
101312.778340
101289.764765
101308.423245
101303.998368
101296.038304
101299.781739
101320.206173
101293.003278
101299.781739
101293.003278
101308.423245
101316.790005
101303.998368
101322.812193
101289.764765
101303.998368
101290.867363
101322.812193
101325.000000
101290.867363
101316.790005
101296.038304
101324.444319
101289.764765
101322.812193
101320.206172
101320.206173
101320.206173
101296.038304
101290.867363
101293.003278
101324.444319
101316.790005
101312.778340
101324.444319
101322.812193
101299.781739
101308.423245
101312.778340
101295.639361
101318.158817
101314.815997
101298.337933
101311.187005
101314.815997
101296.558128
101298.337933
101303.986254
101303.986254
101307.499866
101318.158817
101298.337933
101300.866944
101324.536965
101323.176955
101311.187005
101300.866944
101295.639361
101303.986254
101307.499866
101318.158817
101321.005424
101300.866944
101323.176955
101300.866944
101296.558128
101307.499866
101296.558128
101321.005424
101321.005424
101325.000000
101323.176955
101324.536965
101295.639361
101295.639361
101321.005424
101325.000000
101311.187005
101318.158817
101307.499866
101324.536965
101298.337933
101303.986254
101296.558128
101314.815997
101323.176955
101324.536965
101311.187005
101314.815997
101283.035860
101315.222135
101305.257567
101294.965784
101299.987667
101324.338200
101310.444358
101284.349022
101325.000000
101310.444358
101305.257567
101286.892835
101290.507463
101283.035859
101290.507463
101299.987667
101294.965784
101286.892835
101294.965784
101319.290691
101315.222134
101286.892835
101322.394385
101305.257567
101299.987667
101283.035859
101299.987667
101322.394385
101284.349022
101325.000000
101284.349021
101315.222134
101290.507463
101324.338200
101319.290691
101283.035859
101319.290691
101322.394385
101290.507463
101319.290691
101284.349021
101286.892835
101324.338200
101315.222134
101310.444358
101324.338200
101294.965784
101322.394385
101305.257567
101310.444358
101289.764765
101316.790005
101312.778340
101293.003278
101308.423245
101312.778340
101290.867363
101299.781739
101293.003278
101303.998368
101299.781739
101316.790005
101293.003278
101322.812193
101324.444319
101308.423245
101296.038304
101296.038304
101289.764765
101299.781739
101303.998368
101296.038304
101316.790005
101296.038304
101322.812193
101320.206173
101290.867363
101290.867363
101303.998368
101320.206173
101320.206173
101322.812193
101325.000000
101324.444319
101320.206173
101289.764765
101289.764765
101325.000000
101316.790005
101308.423245
101303.998368
101293.003278
101324.444319
101299.781739
101290.867363
101312.778340
101322.812193
101324.444319
101308.423245
101312.778340
101275.415814
101313.446624
101301.672644
101289.512031
101295.445810
101324.218028
101307.801277
101276.967427
101325.000000
101307.801277
101301.672644
101284.244146
101295.445810
101289.512031
101279.973158
101275.415814
101284.244146
101279.973158
101289.512031
101313.446624
101279.973158
101318.253968
101321.921245
101275.415814
101301.672644
101295.445810
101295.445810
101321.921245
101276.967426
101325.000000
101276.967426
101313.446624
101284.244146
101318.253968
101324.218028
101275.415814
101284.244146
101318.253968
101321.921245
101318.253968
101279.973157
101276.967426
101313.446624
101324.218028
101307.801277
101289.512031
101324.218028
101321.921245
101301.672644
101307.801277
101283.035859
101310.444358
101315.222134
101286.892835
101305.257567
101310.444358
101284.349022
101294.965784
101299.987667
101286.892835
101315.222134
101294.965784
101286.892835
101322.394385
101305.257567
101324.338200
101290.507463
101290.507463
101283.035859
101290.507463
101294.965784
101299.987667
101315.222134
101290.507463