# vtk DataFile Version 3.0
Time Step 40, Physical Time = 0.000400s, Residual = 6.70e-03
ASCII
DATASET UNSTRUCTURED_GRID
POINTS 5000 float
0.318712 0.385257 0.000000
-0.318712 0.385257 0.000000
-0.318712 -0.385257 0.000000
0.318712 -0.385257 0.000000
0.093691 0.491144 0.000000
-0.093691 0.491144 0.000000
-0.093691 -0.491144 0.000000
0.093691 -0.491144 0.000000
0.404508 0.293893 0.000000
-0.404508 0.293893 0.000000
-0.404508 -0.293893 0.000000
0.404508 -0.293893 0.000000
0.438153 0.240877 0.000000
-0.438153 0.240877 0.000000
-0.438153 -0.240877 0.000000
0.438153 -0.240877 0.000000
0.500000 0.000000 0.000000
-0.500000 -0.000000 0.000000
0.364484 0.342274 0.000000
-0.364484 0.342274 0.000000
-0.364484 -0.342274 0.000000
0.364484 -0.342274 0.000000
0.496057 0.062667 0.000000
-0.496057 0.062667 0.000000
-0.496057 -0.062667 0.000000
0.496057 -0.062667 0.000000
0.212890 0.452414 0.000000
-0.212890 0.452414 0.000000
-0.212890 -0.452414 0.000000
0.212890 -0.452414 0.000000
0.154508 0.475528 0.000000
-0.154508 0.475528 0.000000
-0.154508 -0.475528 0.000000
0.154508 -0.475528 0.000000
0.267913 0.422164 0.000000
-0.267913 0.422164 0.000000
-0.267913 -0.422164 0.000000
0.267913 -0.422164 0.000000
0.031395 0.499013 0.000000
-0.031395 0.499013 0.000000
-0.031395 -0.499013 0.000000
0.031395 -0.499013 0.000000
0.464888 0.184062 0.000000
-0.464888 0.184062 0.000000
-0.464888 -0.184062 0.000000
0.464888 -0.184062 0.000000
0.484292 0.124345 0.000000
-0.484292 0.124345 0.000000
-0.484292 -0.124345 0.000000
0.484292 -0.124345 0.000000
-0.031454 0.499951 0.000000
0.438977 0.241329 0.000000
-0.268417 0.422957 0.000000
0.365169 0.342917 0.000000
-0.496990 -0.062784 0.000000
0.319311 -0.385981 0.000000
0.405269 0.294445 0.000000
-0.093867 0.492067 0.000000
0.500940 -0.000000 0.000000
-0.213290 0.453264 0.000000
-0.154799 0.476422 0.000000
0.031454 0.499951 0.000000
0.465762 0.184408 0.000000
0.319311 0.385981 0.000000
0.365169 -0.342917 0.000000
0.405269 -0.294445 0.000000
-0.365169 0.342917 0.000000
-0.319311 0.385981 0.000000
0.268417 0.422957 0.000000
0.213290 0.453264 0.000000
-0.319311 -0.385981 0.000000
0.154799 -0.476422 0.000000
-0.485202 -0.124579 0.000000
0.154799 0.476422 0.000000
0.268417 -0.422957 0.000000
0.093867 0.492067 0.000000
-0.031454 -0.499951 0.000000
-0.500940 0.000000 0.000000
0.438977 -0.241329 0.000000
-0.438977 -0.241329 0.000000
0.093867 -0.492067 0.000000
-0.485202 0.124579 0.000000
0.485202 0.124579 0.000000
-0.496990 0.062784 0.000000
0.213290 -0.453264 0.000000
0.031454 -0.499951 0.000000
0.496990 -0.062784 0.000000
0.465762 -0.184408 0.000000
-0.465762 -0.184408 0.000000
-0.213290 -0.453264 0.000000
-0.093867 -0.492067 0.000000
-0.405269 -0.294445 0.000000
0.496990 0.062784 0.000000
0.485202 -0.124579 0.000000
-0.154799 -0.476422 0.000000
-0.365169 -0.342917 0.000000
-0.465762 0.184408 0.000000
-0.438977 0.241329 0.000000
-0.405269 0.294445 0.000000
-0.268417 -0.422957 0.000000
-0.031523 0.501039 0.000000
0.439932 0.241854 0.000000
-0.269001 0.423877 0.000000
0.365964 0.343663 0.000000
-0.498071 -0.062921 0.000000
0.320005 -0.386820 0.000000
0.406150 0.295085 0.000000
-0.094071 0.493137 0.000000
0.502029 -0.000000 0.000000
-0.213754 0.454250 0.000000
-0.155136 0.477458 0.000000
0.031523 0.501039 0.000000
0.466775 0.184809 0.000000
0.365964 -0.343663 0.000000
0.406150 -0.295085 0.000000
0.320005 0.386820 0.000000
-0.365964 0.343663 0.000000
-0.320005 0.386820 0.000000
0.269001 0.423877 0.000000
0.213754 0.454250 0.000000
-0.320005 -0.386820 0.000000
0.155136 -0.477458 0.000000
-0.486257 -0.124850 0.000000
0.155136 0.477458 0.000000
0.269001 -0.423877 0.000000
0.094071 0.493137 0.000000
-0.031523 -0.501039 0.000000
-0.502029 0.000000 0.000000
0.439932 -0.241854 0.000000
-0.439932 -0.241854 0.000000
0.094071 -0.493137 0.000000
-0.486257 0.124850 0.000000
0.486257 0.124850 0.000000
-0.498071 0.062921 0.000000
0.213754 -0.454250 0.000000
0.031523 -0.501039 0.000000
0.466775 -0.184809 0.000000
0.498071 -0.062921 0.000000
-0.466775 -0.184809 0.000000
-0.213754 -0.454250 0.000000
-0.094071 -0.493137 0.000000
-0.406150 -0.295085 0.000000
0.498071 0.062921 0.000000
-0.155136 -0.477458 0.000000
0.486257 -0.124850 0.000000
-0.365964 -0.343663 0.000000
-0.466775 0.184809 0.000000
-0.439932 0.241854 0.000000
-0.406150 0.295085 0.000000
-0.269001 -0.423877 0.000000
-0.031604 0.502329 0.000000
0.441064 0.242477 0.000000
-0.269693 0.424969 0.000000
0.366906 0.344547 0.000000
-0.499353 -0.063083 0.000000
0.320829 -0.387816 0.000000
0.407196 0.295845 0.000000
-0.094313 0.494407 0.000000
0.503322 -0.000000 0.000000
-0.214304 0.455419 0.000000
-0.155535 0.478688 0.000000
0.031604 0.502329 0.000000
0.467977 0.185285 0.000000
0.366906 -0.344547 0.000000
0.407196 -0.295845 0.000000
0.320829 0.387816 0.000000
0.269693 0.424969 0.000000
-0.366906 0.344547 0.000000
-0.320829 0.387816 0.000000
0.214304 0.455419 0.000000
-0.320829 -0.387816 0.000000
0.155535 -0.478688 0.000000
-0.487509 -0.125171 0.000000
0.155535 0.478688 0.000000
0.269693 -0.424969 0.000000
-0.031604 -0.502329 0.000000
0.094313 0.494407 0.000000
-0.503322 0.000000 0.000000
0.441064 -0.242477 0.000000
-0.441064 -0.242477 0.000000
-0.487509 0.125171 0.000000
0.094313 -0.494407 0.000000
0.487509 0.125171 0.000000
-0.499353 0.063083 0.000000
0.214304 -0.455419 0.000000
0.031604 -0.502329 0.000000
0.467977 -0.185285 0.000000
0.499353 -0.063083 0.000000
-0.467977 -0.185285 0.000000
-0.214304 -0.455419 0.000000
-0.094313 -0.494407 0.000000
-0.407196 -0.295845 0.000000
0.499353 0.063083 0.000000
-0.155535 -0.478688 0.000000
0.487509 -0.125171 0.000000
-0.467977 0.185285 0.000000
-0.366906 -0.344547 0.000000
-0.441064 0.242477 0.000000
-0.407196 0.295845 0.000000
-0.269693 -0.424969 0.000000
-0.031700 0.503862 0.000000
0.442411 0.243217 0.000000
-0.270517 0.426266 0.000000
0.368026 0.345599 0.000000
-0.500877 -0.063276 0.000000
0.321809 -0.389000 0.000000
0.408439 0.296748 0.000000
-0.094601 0.495916 0.000000
0.504858 -0.000000 0.000000
-0.214958 0.456810 0.000000
-0.156010 0.480149 0.000000
0.031700 0.503862 0.000000
0.469405 0.185851 0.000000
0.368026 -0.345599 0.000000
0.408439 -0.296748 0.000000
0.321809 0.389000 0.000000
0.270517 0.426266 0.000000
-0.368026 0.345599 0.000000
-0.321809 0.389000 0.000000
0.214958 0.456810 0.000000
-0.321809 -0.389000 0.000000
0.156010 -0.480149 0.000000
0.270517 -0.426266 0.000000
-0.488997 -0.125553 0.000000
0.156010 0.480149 0.000000
-0.031700 -0.503862 0.000000
0.094601 0.495916 0.000000
-0.504858 0.000000 0.000000
0.442411 -0.243217 0.000000
-0.442411 -0.243217 0.000000
-0.488997 0.125553 0.000000
0.094601 -0.495916 0.000000
0.488997 0.125553 0.000000
-0.500877 0.063276 0.000000
0.214958 -0.456810 0.000000
0.031700 -0.503862 0.000000
0.469405 -0.185851 0.000000
0.500877 -0.063276 0.000000
-0.469405 -0.185851 0.000000
-0.214958 -0.456810 0.000000
-0.094601 -0.495916 0.000000
-0.408439 -0.296748 0.000000
-0.469405 0.185851 0.000000
0.500877 0.063276 0.000000
-0.156010 -0.480149 0.000000
0.488997 -0.125553 0.000000
-0.368026 -0.345599 0.000000
-0.442411 0.243217 0.000000
-0.408439 0.296748 0.000000
-0.270517 -0.426266 0.000000
-0.031815 0.505686 0.000000
0.444012 0.244098 0.000000
-0.271496 0.427809 0.000000
0.369358 0.346850 0.000000
-0.502691 -0.063505 0.000000
0.322974 -0.390408 0.000000
0.409918 0.297823 0.000000
-0.094943 0.497711 0.000000
0.506686 -0.000000 0.000000
-0.215736 0.458463 0.000000
-0.156575 0.481887 0.000000
0.031815 0.505686 0.000000
0.369358 -0.346850 0.000000
0.409918 -0.297823 0.000000
0.471105 0.186524 0.000000
0.322974 0.390408 0.000000
0.271496 0.427809 0.000000
-0.369358 0.346850 0.000000
-0.322974 0.390408 0.000000
0.215736 0.458463 0.000000
0.156575 -0.481887 0.000000
-0.322974 -0.390408 0.000000
0.271496 -0.427809 0.000000
-0.490768 -0.126008 0.000000
0.156575 0.481887 0.000000
-0.031815 -0.505686 0.000000
0.094943 0.497711 0.000000
-0.506686 0.000000 0.000000
0.444012 -0.244098 0.000000
-0.490768 0.126008 0.000000
-0.444012 -0.244098 0.000000
0.094943 -0.497711 0.000000
0.490768 0.126008 0.000000
-0.502691 0.063505 0.000000
0.215736 -0.458463 0.000000
0.031815 -0.505686 0.000000
0.471105 -0.186524 0.000000
-0.471105 -0.186524 0.000000
0.502691 -0.063505 0.000000
-0.215736 -0.458463 0.000000
-0.094943 -0.497711 0.000000
-0.409918 -0.297823 0.000000
-0.471105 0.186524 0.000000
0.502691 0.063505 0.000000
-0.156575 -0.481887 0.000000
0.490768 -0.126008 0.000000
-0.369358 -0.346850 0.000000
-0.444012 0.244098 0.000000
-0.409918 0.297823 0.000000
-0.271496 -0.427809 0.000000
-0.031952 0.507855 0.000000
0.445917 0.245145 0.000000
-0.272661 0.429644 0.000000
0.370943 0.348338 0.000000
-0.504847 -0.063777 0.000000
0.324359 -0.392083 0.000000
0.411676 0.299100 0.000000
-0.095351 0.499846 0.000000
0.508859 -0.000000 0.000000
-0.216662 0.460430 0.000000
-0.157246 0.483954 0.000000
0.031952 0.507855 0.000000
0.370943 -0.348338 0.000000
0.411676 -0.299100 0.000000
0.324359 0.392083 0.000000
0.473126 0.187324 0.000000
0.272661 0.429644 0.000000
-0.370943 0.348338 0.000000
-0.324359 0.392083 0.000000
0.216662 0.460430 0.000000
0.157246 -0.483954 0.000000
-0.324359 -0.392083 0.000000
0.272661 -0.429644 0.000000
0.157246 0.483954 0.000000
-0.492873 -0.126548 0.000000
-0.031952 -0.507855 0.000000
0.095351 0.499846 0.000000
0.445917 -0.245145 0.000000
-0.508859 0.000000 0.000000
-0.492873 0.126548 0.000000
-0.445917 -0.245145 0.000000
0.095351 -0.499846 0.000000
-0.504847 0.063777 0.000000
0.216662 -0.460430 0.000000
0.492873 0.126548 0.000000
0.031952 -0.507855 0.000000
0.473126 -0.187324 0.000000
-0.473126 -0.187324 0.000000
0.504847 -0.063777 0.000000
-0.216662 -0.460430 0.000000
-0.095351 -0.499846 0.000000
-0.473126 0.187324 0.000000
-0.411676 -0.299100 0.000000
-0.157246 -0.483954 0.000000
0.504847 0.063777 0.000000
0.492873 -0.126548 0.000000
-0.370943 -0.348338 0.000000
-0.445917 0.245145 0.000000
-0.411676 0.299100 0.000000
-0.272661 -0.429644 0.000000
0.318712 0.385257 0.100000
-0.318712 0.385257 0.100000
[...]
POINT_DATA 5000
SCALARS pressure float 1
LOOKUP_TABLE default
101600.335518
101600.335518
101600.335518
101600.335518
101600.335518
101600.335518
101600.335518
101600.335518
101600.335518
101600.335518
101600.335518
101600.335518
101600.335518
101600.335518
101600.335518
101600.335518
101325.000000
101325.000000
101325.000000
101325.000000
101325.000000
101325.000000
101325.000000
101325.000000
101325.000000
101325.000000
101325.000000
101325.000000
101325.000000
101325.000000
101325.000000
101325.000000
101325.000000
101325.000000
101325.000000
101325.000000
101325.000000
101325.000000
101325.000000
101325.000000
101325.000000
101325.000000
101325.000000
101325.000000
101325.000000
101325.000000
101325.000000
101325.000000
101325.000000
101325.000000
101324.177718
101324.808404
101324.411484
101324.613150
101324.987032
101324.509887
101324.714784
101324.203450
101325.000000
101324.324123
101324.253295
101324.177718
101324.888127
101324.509887
101324.613150
101324.714784
101324.613150
101324.509887
101324.411484
101324.324123
101324.509887
101324.253295
101324.948943
101324.253295
101324.411484
101324.203450
101324.177718
101325.000000
101324.808404
101324.808404
101324.203450
101324.948943
101324.948943
101324.987032
101324.324123
101324.177718
101324.987032
101324.888127
101324.888127
101324.324123
101324.203450
101324.714784
101324.987032
101324.948943
101324.253295
101324.613150
101324.888127
101324.808404
101324.714784
101324.411484
101323.229995
101324.587579
101323.733187
101324.167284
101324.972086
101323.945005
101324.386058
101323.285383
101325.000000
101323.545140
101323.392678
101323.229995
101324.759187
101324.167284
101324.386058
101323.945005
101324.167284
101323.945005
101323.733187
101323.545140
101323.945005
101323.392678
101324.890098
101323.392678
101323.733187
101323.285383
101323.229995
101325.000000
101324.587579
101324.587579
101323.285383
101324.890098
101324.890098
101324.972086
101323.545140
101323.229995
101324.759187
101324.972086
101324.759187
101323.545140
101323.285383
101324.386058
101324.972086
101323.392678
101324.890098
101324.167284
101324.759187
101324.587579
101324.386058
101323.733187
101322.113562
101324.327445
101322.934144
101323.642048
101324.954479
101323.279566
101323.998813
101322.203886
101325.000000
101322.627485
101322.378858
101322.113562
101324.607294
101323.642048
101323.998813
101323.279566
101322.934144
101323.642048
101323.279566
101322.627485
101323.279566
101322.378858
101324.820777
101322.378858
101322.934144
101322.113562
101322.203886
101325.000000
101324.327445
101324.327445
101324.820777
101322.203886
101324.820777
101324.954479
101322.627485
101322.113562
101324.607294
101324.954479
101324.607294
101322.627485
101322.203886
101323.998813
101324.954479
101322.378858
101324.820777
101324.607294
101323.642048
101324.327445
101323.998813
101322.934144
101320.797617
101324.020823
101321.992306
101323.022949
101324.933726
101322.495209
101323.542365
101320.929120
101325.000000
101321.545840
101321.183863
101320.797617
101324.428257
101323.022948
101323.542365
101322.495209
101321.992306
101323.022948
101322.495209
101321.545840
101322.495209
101321.183863
101321.992306
101324.739068
101321.183863
101320.797617
101320.929120
101325.000000
101324.020823
101324.020823
101324.739068
101320.929120
101324.739068
101324.933726
101321.545840
101320.797617
101324.428257
101324.933726
101324.428257
101321.545840
101320.929120
101323.542365
101324.428257
101324.933726
101321.183863
101324.739068
101323.022948
101324.020823
101323.542365
101321.992306
101319.247954
101323.659743
101320.883195
101322.293895
101324.909287
101321.571547
101323.004851
101319.427950
101325.000000
101320.272091
101319.776632
101319.247954
101322.293895
101323.004851
101324.217422
101321.571547
101320.883195
101322.293895
101321.571547
101320.272091
101319.776632
101321.571547
101320.883195
101324.642847
101319.776632
101319.247954
101319.427950
101325.000000
101323.659743
101324.642847
101323.659743
101319.427950
101324.642847
101324.909287
101320.272091
101319.247954
101324.217422
101324.217422
101324.909287
101320.272091
101319.427950
101323.004851
101324.217422
101324.909287
101319.776632
101324.642847
101322.293895
101323.659743
101323.004851
101320.883195
101317.426803
101323.235405
101319.579776
101321.437117
101324.880566
101320.486067
101322.373168
101317.663787
101325.000000
101318.775190
101318.122865
101317.426803
101321.437117
101322.373168
101320.486067
101323.969651
101319.579776
101321.437117
101320.486067
101318.775190
101318.122865
101320.486067
101319.579776
101318.122865
101324.529769
101317.426803
101317.663787
101323.235405
101325.000000
101324.529769
101323.235405
101317.663787
101324.880566
101318.775190
101324.529769
101317.426803
101323.969651
101323.969651
101324.880566
101318.775190
101317.663787
101323.969651
101322.373168
101318.122865
101324.880566
101324.529769
101321.437117
101323.235405
101322.373168
101319.579776
101600.335518
101600.335518
101600.335518
101600.335518
101600.335518
101600.335518
101600.335518
101600.335518
101600.335518
101600.335518
101600.335518
101600.335518
101600.335518
101600.335518
101600.335518
101600.335518
101325.000000
101325.000000
101325.000000
101325.000000
101325.000000
101325.000000
101325.000000
101325.000000
101325.000000
101325.000000
101325.000000
101325.000000
101325.000000
101325.000000
101325.000000
101325.000000
101325.000000
101325.000000
101325.000000
101325.000000
101325.000000
101325.000000
101325.000000
101325.000000
101325.000000
101325.000000
101325.000000
101325.000000
101325.000000
101325.000000
101325.000000
101325.000000
101325.000000
101325.000000
101324.177718
101324.808404
101324.203450
101324.714784
101324.714784
101324.253295
101324.613150
101324.253295
101324.411484
101324.324123
101324.411484
101324.509887
101324.808404
101324.177718
101324.987032
101324.253295
101324.613150
101324.888127
101324.948943
101324.324123
101324.509887
101324.203450
101324.509887
101324.411484
101324.948943
101324.808404
101325.000000
101324.324123
101324.948943
101324.203450
101324.324123
101324.888127
101324.888127
101325.000000
101324.987032
101324.613150
101324.177718
101324.177718
101324.509887
101324.987032
101324.808404
101324.888127
101324.714784
101324.987032
101324.253295
101324.203450
101324.411484
101324.948943
101324.613150
101324.714784
101315.292422
101322.738083
101320.432977
101318.052175
101324.846906
101319.213889
101321.632839
101315.596196
101325.000000
101317.020830
101316.184657
101315.292422
101320.432977
101321.632839
101319.213889
101323.679264
101318.052175
101317.020830
101320.432977
101319.213889
101316.184657
101319.213889
101318.052175
101316.184657
101324.397242
101315.292422
101315.596196
101322.738083
101325.000000
101324.397242
101322.738083
101315.596196
101317.020830
101324.846906
101324.397242
101315.292422
101323.679264
101323.679264
101324.846906
101317.020830
101323.679264
101315.596196
101321.632839
101316.184657
101324.846906
101324.397242
101320.432977
101322.738083
101321.632839
101318.052175
101323.229995
101324.587579
101323.285383
101324.386058
101324.386058
101324.167284
101323.392678
101323.392678
101323.733187
101323.545140
101323.733187
101323.945005
101324.587579
101323.229995
101324.972086
101323.392678
101324.167284
101324.759187
101324.890098
101323.545140
101323.945005
101323.285383
101323.945005
101323.733187
101324.890098
101324.587579
101323.545140
101325.000000
101324.890098
101323.285383
101323.545140
101324.759187
101324.759187
101324.972086
101325.000000
101324.167284
101323.229995
101323.229995
101323.945005
101324.972086
101324.587579
101324.759187
101324.386058
101324.972086
101323.392678
101323.285383
101323.733187
101324.890098
101324.167284
101324.386058
101322.113562
101324.327445
101322.203886
101323.998813
101323.998813
101323.642048
101322.378858
101322.378858
101322.934144
101322.627485
101322.934144
101323.279566
101324.327445
101324.954479
101322.113562
101322.378858
101323.642048
101324.820777
101324.607294
101322.627485
101323.279566
101322.203886
101323.279566
101322.934144
101324.820777
101324.327445
101322.627485
101325.000000
101324.820777
101322.203886
101322.627485
101324.607294
101324.607294
101324.954479
101325.000000
101323.642048
101322.113562
101322.113562
101323.279566
101324.954479
101324.327445
101324.607294
101323.998813
101324.954479
101322.378858
101322.203886
101322.934144
101324.820777
101323.642048
101323.998813
101312.796812
101322.156593
101319.258893
101316.266039
101324.807548
101317.726404
101320.767214
101313.178680
101325.000000
101314.969557
101313.918422
101312.796812
101320.767214
101319.258893
101317.726404
101323.339731
101316.266039
101314.969557
101319.258893
101317.726404
101313.918422
101316.266039
101317.726404
101313.918422
101324.242286
101312.796812
101322.156593
101313.178680
101325.000000
101324.242286
101322.156593
101313.178680
101314.969557
101324.807548
101324.242286
101312.796812
101323.339731
101323.339731
101324.807548
101314.969557
101323.339731
101313.178680
101320.767214
101313.918422
101324.807548
101322.156593
101324.242286
101319.258893
101316.266039
101320.767214
101320.797617
101324.020823
101320.929120
101323.542365
101323.542365
101323.022948
101321.183863
101321.183863
101321.992306
101321.992306
101321.545840
101322.495209
101324.020823
101324.933726
101320.797617
101321.183863
101323.022948
101324.739068
101324.428257
101321.545840
101322.495209
101320.929120
101322.495209
101321.992306
101324.739068
101324.020823
101321.545840
101325.000000
101324.739068
101320.929120
101321.545840
101324.428257
101324.428257
101324.933726
101325.000000
101323.022948
101320.797617
101320.797617
101322.495209
101324.933726
101324.020823
101324.428257
101323.542365
101324.933726
101321.183863
101320.929120
101321.992306
101324.739068
101323.022948
101323.542365
101319.247954
101323.659743
101323.004851
101319.427950
101323.004851
101322.293895
101319.776632
101319.776632
101320.883195
101320.883195
101320.272091
101321.571547
101323.659743
101324.909287
101319.776632
101319.247954
101322.293895
101324.642847
101320.272091
101324.217422
101321.571547
101319.427950
101320.883195
101321.571547
101324.642847
101323.659743
101320.272091
101325.000000
101319.427950
101324.642847
101320.272091
101324.217422
101324.217422
101324.909287
101325.000000
101322.293895
101319.247954
101319.247954
101321.571547
101324.909287
101323.659743
101324.217422
101323.004851
101319.776632
101319.427950
101324.909287
101320.883195
101324.642847
101322.293895
101323.004851
101309.884166
101321.477931
101317.888611
101314.181425
101324.761614
101315.990349
101319.756936
101310.357178
101325.000000
101312.575500
101311.273481
101309.884166
101319.756936
101317.888611
101315.990349
101314.181425
101322.943459
101312.575500
101317.888611
101315.990349
101311.273481
101314.181425
101315.990349
101311.273481
101324.061436
101309.884166
101321.477931
101310.357178
101325.000000
101324.061436
101310.357178
101321.477931
101312.575500
101324.761614
101324.061436
101309.884166
101322.943459
101322.943459
101322.943459
101312.575500
101324.761614
101310.357178
101311.273481
101319.756936
101324.761614
101321.477931
101324.061436
101317.888611
101314.181425
101319.756936
101317.426803
101323.235405
101322.373168
101317.663787
101322.373168
101321.437117
101318.122865
101318.122865
101319.579776
101319.579776
101318.775190
101320.486067
101323.235405
101324.880566
101318.122865
101317.426803
101321.437117
101324.529769
101318.775190
101323.969651
101320.486067
101319.579776
101317.663787
101320.486067
101324.529769
101323.235405
101318.775190
101325.000000
101317.663787
101324.529769
101318.775190
101323.969651
101323.969651
101324.880566
101325.000000
101321.437117
101317.426803
101317.426803
101320.486067
101323.969651
101323.235405
101324.880566
101322.373168
101318.122865
101317.663787
101319.579776
101324.880566
101324.529769
101321.437117
101322.373168
101315.292422
101322.738083
101321.632839
101321.632839
101320.432977
101315.596196
101316.184657
101316.184657
101318.052175
101318.052175
101317.020830
101319.213889
101322.738083
101324.846906
101316.184657
101315.292422
101320.432977
101324.397242
101317.020830
101323.679264
101319.213889
101318.052175
101315.596196
101324.397242
101322.738083
101319.213889
101317.020830
101315.596196
101325.000000
101317.020830
101324.397242
101323.679264
101323.679264
101324.846906
101325.000000
101315.292422
101320.432977
101315.292422
101319.213889
101323.679264
101322.738083
101324.846906
101321.632839
101316.184657
101315.596196
101318.052175
101324.846906
101324.397242
101320.432977
101321.632839
101306.505543
101320.690694
101316.299105
101311.763306
101324.708331
101313.976552
101318.585030
101307.084281
101325.000000
101309.798432
101308.205391
101306.505543
101318.585030
101316.299105
101313.976552
101311.763306
101309.798432
101322.483790
101308.205391
101316.299105
101313.976552
101311.763306
101308.205391
101313.976552
101323.851652
101320.690694
101306.505543
101307.084281
101325.000000
101323.851652
101307.084281
101320.690694
101309.798432
101324.708331
101323.851652
101306.505543
101322.483790
101322.483790
101322.483790
101309.798432
101324.708331
101307.084281
101308.205391
101318.585030
101320.690694
101324.708331
101323.851652
101316.299105
101311.763306
101318.585030
101312.796812
101322.156593
101320.767214
101320.767214
101319.258893
101313.918422
101313.178680
101313.918422
101316.266039
101316.266039
101317.726404
101314.969557
101322.156593
101313.918422
101324.807548
101312.796812
101319.258893
101324.242286
101314.969557
101323.339731
101317.726404
101316.266039
101313.178680
101322.156593
101324.242286
101317.726404
101314.969557
101313.178680
101314.969557
101325.000000
101324.242286
101323.339731
101323.339731
101324.807548
101325.000000
101312.796812
101312.796812
101319.258893
101323.339731
101317.726404
101322.156593
101324.807548
101320.767214
101313.918422
101313.178680
101316.266039
101324.242286
101324.807548
101319.258893
101320.767214
101302.605417
101319.781944
101314.464253
101308.971941
101324.646824
101311.651918
101317.232236
101303.306199
101325.000000
101304.663731
101306.592713
101302.605417
101317.232236
101314.464253
101311.651918
101308.971941
101306.592713
101321.953170
101304.663731
101308.971941
101314.464253
101311.651918
101304.663731
101323.609488
101319.781944
101311.651918
101302.605417
101303.306199
101323.609488
101325.000000
101303.306199
101319.781944
101306.592713
101324.646824
101302.605417
101323.609488
101321.953170
101321.953170
101321.953170
101306.592713
101303.306199
101324.646824
101304.663731
101317.232236
101319.781944
101324.646824
101323.609488
101314.464253
101308.971941
101317.232236
101309.884166
101321.477931
101319.756936
101319.756936
101317.888611
101311.273481
101310.357178
101311.273481
101314.181425
101314.181425
101315.990349
101312.575500
101321.477931
101311.273481
101324.761614
101317.888611
101324.061436
101309.884166
101312.575500
101322.943459
101315.990349
101314.181425
101321.477931
101310.357178
101324.061436
101312.575500
101315.990349
101312.575500
101310.357178
101325.000000
101324.061436
101322.943459
101322.943459
101324.761614
101325.000000
101309.884166
101309.884166
101317.888611
101322.943459
101315.990349
101321.477931
101324.761614
101311.273481
101319.756936
101310.357178
101314.181425
101324.061436
101324.761614
101317.888611
101319.756936
101306.505543
101320.690694
101318.585030
101308.205391
101316.299105
101318.585030
101307.084281
101308.205391
101311.763306
101311.763306
101313.976552
101320.690694
101309.798432
101308.205391
101324.708331
101316.299105
101323.851652
101306.505543
101309.798432
101313.976552
101311.763306
101322.483790
101320.690694
101307.084281
101323.851652
101309.798432
101309.798432
101313.976552
101307.084281
101325.000000
101323.851652
101322.483790
101322.483790
101324.708331
101306.505543
101306.505543
101325.000000
101322.483790
101316.299105
101313.976552
101320.690694
101324.708331
101308.205391
101311.763306
101307.084281
101318.585030
101323.851652
101324.708331
101316.299105
101318.585030
101298.124618
101318.737895
101312.356218
101305.764981
101308.981180
101324.576159
101315.678031
101298.965615
101325.000000
101300.594767
101302.909708
101315.678031
101298.124618
101312.356218
101308.981180
101302.909708
101305.764981
101321.343548
101300.594767
101305.764981
101300.594767
101312.356218
101318.737895
101308.981180
101323.331268
101298.124618
101308.981180
101298.965615
101323.331268
101325.000000
101298.965615
101318.737895
101302.909708
101324.576159
101298.124618
101323.331268
101321.343548
101321.343548
101321.343548
101302.909708
101298.965615
101300.594767
101324.576159
101318.737895
101315.678030
101324.576159
101323.331268
101305.764981
101312.356218
101315.678030
101302.605417
101319.781944
101317.232236
101304.663731
101314.464253
101317.232236
101303.306199
101304.663731
101308.971941
101308.971941
101311.651918
101319.781944
101304.663731
101306.592713
101324.646824
101323.609488
101314.464253
101306.592713
101302.605417
101308.971941
101311.651918
101319.781944
101321.953170
101306.592713
101323.609488
101306.592713
101303.306199
101311.651918
101303.306199
101321.953170
101321.953170
101325.000000
101323.609488
101324.646824
101302.605417
101302.605417
101321.953170
101325.000000
101314.464253
101319.781944
101311.651918
101324.646824
101304.663731
101308.971941
101303.306199
101317.232236
101323.609488
101324.646824
101314.464253
101317.232236
101292.992201
101317.542015
101309.941624
101302.091652
101305.922051
101324.495218
101313.897805
101293.993805
101325.000000
101313.897805
101309.941624
101295.934077
101298.691104
101292.992201
101298.691104
101305.922051
101302.091652
101295.934077
101302.091652
101320.645272
101317.542015
101295.934077
101323.012589
101309.941624
101305.922051
101292.992201
101305.922051
101323.012589
101293.993805
101325.000000
101293.993805
101317.542015
101298.691104
101324.495218
101320.645272
101292.992201
101320.645272
101323.012589
101298.691104
101320.645272
101293.993805
101295.934077
101324.495218
101317.542014
101313.897805
101324.495218
101302.091652
101323.012589
101309.941624
101313.897805
101298.124618
101318.737895
101315.678031
101300.594767
101312.356218
101315.678031
101298.965615
101305.764981
101300.594767
101308.981180
101305.764981
101318.737895
101300.594767
101323.331268
101324.576159
101312.356218
101302.909708
101302.909708
101298.124618
101305.764981
101308.981180
101302.909708
101318.737895
101302.909708
101323.331268
101321.343548
101298.965615
101298.965615
101308.981180
101321.343548
101321.343548
101323.331268
101325.000000
101324.576159
101321.343548
101298.124618
101298.124618
101325.000000
101318.737895
101312.356218
101308.981180
101300.594767
101324.576159
101305.764981
101298.965615
101315.678031
101323.331268
101324.576159
101312.356218
101315.678030
101287.180075
101316.187759
101307.207253
101297.931847
101302.457788
101324.403557
101311.881817
101288.363555
101325.000000
101311.881817
101307.207253
101293.913812
101302.457788
101297.931847
101290.656151
101287.180075
101293.913812
101290.656151
101297.931847
101316.187759
101290.656151
101319.854520
101322.651705
101287.180075
101307.207253
101302.457788
101302.457788
101322.651705
101288.363555
101325.000000
101288.363555
101316.187759
101293.913812
101319.854520
101324.403557
101287.180075
101293.913812
101319.854520
101322.651705
101319.854520
101290.656151
101288.363555
101316.187759
101324.403557
101311.881817
101297.931847
101324.403557
101322.651705
101307.207253
101311.881817
101292.992201
101313.897805
101317.542015
101295.934077
101309.941624
101313.897805
101293.993805
101302.091652
101305.922051
101295.934077
101317.542015
101302.091652
101295.934077
101323.012589
101309.941624
101324.495218
101298.691104
101298.691104
101292.992201
101298.691104
101302.091652
101305.922051
101317.542015
101298.691104