# vtk DataFile Version 3.0
Time Step 152, Physical Time = 0.001520s, Residual = 2.19e-03
ASCII
DATASET UNSTRUCTURED_GRID
POINTS 5000 float
0.318712 0.385257 0.000000
-0.318712 0.385257 0.000000
-0.318712 -0.385257 0.000000
0.318712 -0.385257 0.000000
0.093691 0.491144 0.000000
-0.093691 0.491144 0.000000
-0.093691 -0.491144 0.000000
0.093691 -0.491144 0.000000
0.404508 0.293893 0.000000
-0.404508 0.293893 0.000000
-0.404508 -0.293893 0.000000
0.404508 -0.293893 0.000000
0.438153 0.240877 0.000000
-0.438153 0.240877 0.000000
-0.438153 -0.240877 0.000000
0.438153 -0.240877 0.000000
0.500000 0.000000 0.000000
-0.500000 -0.000000 0.000000
0.364484 0.342274 0.000000
-0.364484 0.342274 0.000000
-0.364484 -0.342274 0.000000
0.364484 -0.342274 0.000000
0.496057 0.062667 0.000000
-0.496057 0.062667 0.000000
-0.496057 -0.062667 0.000000
0.496057 -0.062667 0.000000
0.212890 0.452414 0.000000
-0.212890 0.452414 0.000000
-0.212890 -0.452414 0.000000
0.212890 -0.452414 0.000000
0.154508 0.475528 0.000000
-0.154508 0.475528 0.000000
-0.154508 -0.475528 0.000000
0.154508 -0.475528 0.000000
0.267913 0.422164 0.000000
-0.267913 0.422164 0.000000
-0.267913 -0.422164 0.000000
0.267913 -0.422164 0.000000
0.031395 0.499013 0.000000
-0.031395 0.499013 0.000000
-0.031395 -0.499013 0.000000
0.031395 -0.499013 0.000000
0.464888 0.184062 0.000000
-0.464888 0.184062 0.000000
-0.464888 -0.184062 0.000000
0.464888 -0.184062 0.000000
0.484292 0.124345 0.000000
-0.484292 0.124345 0.000000
-0.484292 -0.124345 0.000000
0.484292 -0.124345 0.000000
-0.031454 0.499951 0.000000
0.438977 0.241329 0.000000
-0.268417 0.422957 0.000000
0.365169 0.342917 0.000000
-0.496990 -0.062784 0.000000
0.319311 -0.385981 0.000000
0.405269 0.294445 0.000000
-0.093867 0.492067 0.000000
0.500940 -0.000000 0.000000
-0.213290 0.453264 0.000000
-0.154799 0.476422 0.000000
0.031454 0.499951 0.000000
0.465762 0.184408 0.000000
0.319311 0.385981 0.000000
0.365169 -0.342917 0.000000
0.405269 -0.294445 0.000000
-0.365169 0.342917 0.000000
-0.319311 0.385981 0.000000
0.268417 0.422957 0.000000
0.213290 0.453264 0.000000
-0.319311 -0.385981 0.000000
0.154799 -0.476422 0.000000
-0.485202 -0.124579 0.000000
0.154799 0.476422 0.000000
0.268417 -0.422957 0.000000
0.093867 0.492067 0.000000
-0.031454 -0.499951 0.000000
-0.500940 0.000000 0.000000
0.438977 -0.241329 0.000000
-0.438977 -0.241329 0.000000
0.093867 -0.492067 0.000000
-0.485202 0.124579 0.000000
0.485202 0.124579 0.000000
-0.496990 0.062784 0.000000
0.213290 -0.453264 0.000000
0.031454 -0.499951 0.000000
0.496990 -0.062784 0.000000
0.465762 -0.184408 0.000000
-0.465762 -0.184408 0.000000
-0.213290 -0.453264 0.000000
-0.093867 -0.492067 0.000000
-0.405269 -0.294445 0.000000
0.496990 0.062784 0.000000
0.485202 -0.124579 0.000000
-0.154799 -0.476422 0.000000
-0.365169 -0.342917 0.000000
-0.465762 0.184408 0.000000
-0.438977 0.241329 0.000000
-0.405269 0.294445 0.000000
-0.268417 -0.422957 0.000000
-0.031523 0.501039 0.000000
0.439932 0.241854 0.000000
-0.269001 0.423877 0.000000
0.365964 0.343663 0.000000
-0.498071 -0.062921 0.000000
0.320005 -0.386820 0.000000
0.406150 0.295085 0.000000
-0.094071 0.493137 0.000000
0.502029 -0.000000 0.000000
-0.213754 0.454250 0.000000
-0.155136 0.477458 0.000000
0.031523 0.501039 0.000000
0.466775 0.184809 0.000000
0.365964 -0.343663 0.000000
0.406150 -0.295085 0.000000
0.320005 0.386820 0.000000
-0.365964 0.343663 0.000000
-0.320005 0.386820 0.000000
0.269001 0.423877 0.000000
0.213754 0.454250 0.000000
-0.320005 -0.386820 0.000000
0.155136 -0.477458 0.000000
-0.486257 -0.124850 0.000000
0.155136 0.477458 0.000000
0.269001 -0.423877 0.000000
0.094071 0.493137 0.000000
-0.031523 -0.501039 0.000000
-0.502029 0.000000 0.000000
0.439932 -0.241854 0.000000
-0.439932 -0.241854 0.000000
0.094071 -0.493137 0.000000
-0.486257 0.124850 0.000000
0.486257 0.124850 0.000000
-0.498071 0.062921 0.000000
0.213754 -0.454250 0.000000
0.031523 -0.501039 0.000000
0.466775 -0.184809 0.000000
0.498071 -0.062921 0.000000
-0.466775 -0.184809 0.000000
-0.213754 -0.454250 0.000000
-0.094071 -0.493137 0.000000
-0.406150 -0.295085 0.000000
0.498071 0.062921 0.000000
-0.155136 -0.477458 0.000000
0.486257 -0.124850 0.000000
-0.365964 -0.343663 0.000000
-0.466775 0.184809 0.000000
-0.439932 0.241854 0.000000
-0.406150 0.295085 0.000000
-0.269001 -0.423877 0.000000
-0.031604 0.502329 0.000000
0.441064 0.242477 0.000000
-0.269693 0.424969 0.000000
0.366906 0.344547 0.000000
-0.499353 -0.063083 0.000000
0.320829 -0.387816 0.000000
0.407196 0.295845 0.000000
-0.094313 0.494407 0.000000
0.503322 -0.000000 0.000000
-0.214304 0.455419 0.000000
-0.155535 0.478688 0.000000
0.031604 0.502329 0.000000
0.467977 0.185285 0.000000
0.366906 -0.344547 0.000000
0.407196 -0.295845 0.000000
0.320829 0.387816 0.000000
0.269693 0.424969 0.000000
-0.366906 0.344547 0.000000
-0.320829 0.387816 0.000000
0.214304 0.455419 0.000000
-0.320829 -0.387816 0.000000
0.155535 -0.478688 0.000000
-0.487509 -0.125171 0.000000
0.155535 0.478688 0.000000
0.269693 -0.424969 0.000000
-0.031604 -0.502329 0.000000
0.094313 0.494407 0.000000
-0.503322 0.000000 0.000000
0.441064 -0.242477 0.000000
-0.441064 -0.242477 0.000000
-0.487509 0.125171 0.000000
0.094313 -0.494407 0.000000
0.487509 0.125171 0.000000
-0.499353 0.063083 0.000000
0.214304 -0.455419 0.000000
0.031604 -0.502329 0.000000
0.467977 -0.185285 0.000000
0.499353 -0.063083 0.000000
-0.467977 -0.185285 0.000000
-0.214304 -0.455419 0.000000
-0.094313 -0.494407 0.000000
-0.407196 -0.295845 0.000000
0.499353 0.063083 0.000000
-0.155535 -0.478688 0.000000
0.487509 -0.125171 0.000000
-0.467977 0.185285 0.000000
-0.366906 -0.344547 0.000000
-0.441064 0.242477 0.000000
-0.407196 0.295845 0.000000
-0.269693 -0.424969 0.000000
-0.031700 0.503862 0.000000
0.442411 0.243217 0.000000
-0.270517 0.426266 0.000000
0.368026 0.345599 0.000000
-0.500877 -0.063276 0.000000
0.321809 -0.389000 0.000000
0.408439 0.296748 0.000000
-0.094601 0.495916 0.000000
0.504858 -0.000000 0.000000
-0.214958 0.456810 0.000000
-0.156010 0.480149 0.000000
0.031700 0.503862 0.000000
0.469405 0.185851 0.000000
0.368026 -0.345599 0.000000
0.408439 -0.296748 0.000000
0.321809 0.389000 0.000000
0.270517 0.426266 0.000000
-0.368026 0.345599 0.000000
-0.321809 0.389000 0.000000
0.214958 0.456810 0.000000
-0.321809 -0.389000 0.000000
0.156010 -0.480149 0.000000
0.270517 -0.426266 0.000000
-0.488997 -0.125553 0.000000
0.156010 0.480149 0.000000
-0.031700 -0.503862 0.000000
0.094601 0.495916 0.000000
-0.504858 0.000000 0.000000
0.442411 -0.243217 0.000000
-0.442411 -0.243217 0.000000
-0.488997 0.125553 0.000000
0.094601 -0.495916 0.000000
0.488997 0.125553 0.000000
-0.500877 0.063276 0.000000
0.214958 -0.456810 0.000000
0.031700 -0.503862 0.000000
0.469405 -0.185851 0.000000
0.500877 -0.063276 0.000000
-0.469405 -0.185851 0.000000
-0.214958 -0.456810 0.000000
-0.094601 -0.495916 0.000000
-0.408439 -0.296748 0.000000
-0.469405 0.185851 0.000000
0.500877 0.063276 0.000000
-0.156010 -0.480149 0.000000
0.488997 -0.125553 0.000000
-0.368026 -0.345599 0.000000
-0.442411 0.243217 0.000000
-0.408439 0.296748 0.000000
-0.270517 -0.426266 0.000000
-0.031815 0.505686 0.000000
0.444012 0.244098 0.000000
-0.271496 0.427809 0.000000
0.369358 0.346850 0.000000
-0.502691 -0.063505 0.000000
0.322974 -0.390408 0.000000
0.409918 0.297823 0.000000
-0.094943 0.497711 0.000000
0.506686 -0.000000 0.000000
-0.215736 0.458463 0.000000
-0.156575 0.481887 0.000000
0.031815 0.505686 0.000000
0.369358 -0.346850 0.000000
0.409918 -0.297823 0.000000
0.471105 0.186524 0.000000
0.322974 0.390408 0.000000
0.271496 0.427809 0.000000
-0.369358 0.346850 0.000000
-0.322974 0.390408 0.000000
0.215736 0.458463 0.000000
0.156575 -0.481887 0.000000
-0.322974 -0.390408 0.000000
0.271496 -0.427809 0.000000
-0.490768 -0.126008 0.000000
0.156575 0.481887 0.000000
-0.031815 -0.505686 0.000000
0.094943 0.497711 0.000000
-0.506686 0.000000 0.000000
0.444012 -0.244098 0.000000
-0.490768 0.126008 0.000000
-0.444012 -0.244098 0.000000
0.094943 -0.497711 0.000000
0.490768 0.126008 0.000000
-0.502691 0.063505 0.000000
0.215736 -0.458463 0.000000
0.031815 -0.505686 0.000000
0.471105 -0.186524 0.000000
-0.471105 -0.186524 0.000000
0.502691 -0.063505 0.000000
-0.215736 -0.458463 0.000000
-0.094943 -0.497711 0.000000
-0.409918 -0.297823 0.000000
-0.471105 0.186524 0.000000
0.502691 0.063505 0.000000
-0.156575 -0.481887 0.000000
0.490768 -0.126008 0.000000
-0.369358 -0.346850 0.000000
-0.444012 0.244098 0.000000
-0.409918 0.297823 0.000000
-0.271496 -0.427809 0.000000
-0.031952 0.507855 0.000000
0.445917 0.245145 0.000000
-0.272661 0.429644 0.000000
0.370943 0.348338 0.000000
-0.504847 -0.063777 0.000000
0.324359 -0.392083 0.000000
0.411676 0.299100 0.000000
-0.095351 0.499846 0.000000
0.508859 -0.000000 0.000000
-0.216662 0.460430 0.000000
-0.157246 0.483954 0.000000
0.031952 0.507855 0.000000
0.370943 -0.348338 0.000000
0.411676 -0.299100 0.000000
0.324359 0.392083 0.000000
0.473126 0.187324 0.000000
0.272661 0.429644 0.000000
-0.370943 0.348338 0.000000
-0.324359 0.392083 0.000000
0.216662 0.460430 0.000000
0.157246 -0.483954 0.000000
-0.324359 -0.392083 0.000000
0.272661 -0.429644 0.000000
0.157246 0.483954 0.000000
-0.492873 -0.126548 0.000000
-0.031952 -0.507855 0.000000
0.095351 0.499846 0.000000
0.445917 -0.245145 0.000000
-0.508859 0.000000 0.000000
-0.492873 0.126548 0.000000
-0.445917 -0.245145 0.000000
0.095351 -0.499846 0.000000
-0.504847 0.063777 0.000000
0.216662 -0.460430 0.000000
0.492873 0.126548 0.000000
0.031952 -0.507855 0.000000
0.473126 -0.187324 0.000000
-0.473126 -0.187324 0.000000
0.504847 -0.063777 0.000000
-0.216662 -0.460430 0.000000
-0.095351 -0.499846 0.000000
-0.473126 0.187324 0.000000
-0.411676 -0.299100 0.000000
-0.157246 -0.483954 0.000000
0.504847 0.063777 0.000000
0.492873 -0.126548 0.000000
-0.370943 -0.348338 0.000000
-0.445917 0.245145 0.000000
-0.411676 0.299100 0.000000
-0.272661 -0.429644 0.000000
0.318712 0.385257 0.100000
-0.318712 0.385257 0.100000
[...]
POINT_DATA 5000
SCALARS pressure float 1
LOOKUP_TABLE default
101801.082555
101801.082555
101801.082555
101801.082555
101801.082555
101801.082555
101801.082555
101801.082555
101801.082555
101801.082555
101801.082555
101801.082555
101801.082555
101801.082555
101801.082555
101801.082555
101325.000000
101325.000000
101325.000000
101325.000000
101325.000000
101325.000000
101325.000000
101325.000000
101325.000000
101325.000000
101325.000000
101325.000000
101325.000000
101325.000000
101325.000000
101325.000000
101325.000000
101325.000000
101325.000000
101325.000000
101325.000000
101325.000000
101325.000000
101325.000000
101325.000000
101325.000000
101325.000000
101325.000000
101325.000000
101325.000000
101325.000000
101325.000000
101325.000000
101325.000000
101323.578193
101324.668711
101323.982396
101324.331097
101324.977577
101324.152545
101324.506833
101323.622685
101325.000000
101323.831342
101323.708873
101323.578193
101324.806560
101324.152545
101324.331097
101324.506833
101324.331097
101324.152545
101323.982396
101323.831342
101324.152545
101323.708873
101324.911718
101323.708873
101323.982396
101323.622685
101323.578193
101325.000000
101324.668711
101324.668711
101323.622685
101324.911718
101324.911718
101324.977577
101323.831342
101323.578193
101324.977577
101324.806560
101324.806560
101323.831342
101323.622685
101324.506833
101324.977577
101324.911718
101323.708873
101324.331097
101324.806560
101324.668711
101324.506833
101323.982396
101321.939485
101324.286884
101322.809554
101323.560151
101324.951734
101323.175808
101323.938433
101322.035256
101325.000000
101322.484401
101322.220780
101321.939485
101324.583610
101323.560151
101323.938433
101323.175808
101323.560151
101323.175808
101322.809554
101322.484401
101323.175808
101322.220780
101324.809968
101322.220780
101322.809554
101322.035256
101321.939485
101325.000000
101324.286884
101324.286884
101322.035256
101324.809968
101324.809968
101324.951734
101322.484401
101321.939485
101324.583610
101324.951734
101324.583610
101322.484401
101322.035256
101323.938433
101324.951734
101322.220780
101324.809968
101323.560151
101324.583610
101324.286884
101323.938433
101322.809554
101320.009062
101323.837085
101321.427928
101322.651965
101324.921290
101322.025198
101323.268848
101320.165241
101325.000000
101320.897685
101320.467785
101320.009062
101324.320972
101322.651965
101323.268848
101322.025198
101321.427928
101322.651965
101322.025198
101320.897685
101322.025198
101320.467785
101324.690105
101320.467785
101321.427928
101320.009062
101320.165241
101325.000000
101323.837085
101323.837085
101324.690105
101320.165241
101324.690105
101324.921290
101320.897685
101320.009062
101324.320972
101324.921290
101324.320972
101320.897685
101320.165241
101323.268848
101324.921290
101320.467785
101324.690105
101324.320972
101322.651965
101323.837085
101323.268848
101321.427928
101317.733661
101323.306905
101319.799398
101321.581481
101324.885405
101320.668966
101322.479604
101317.961042
101325.000000
101319.027413
101318.401519
101317.733661
101324.011399
101321.581481
101322.479604
101320.668966
101319.799398
101321.581481
101320.668966
101319.027413
101320.668966
101318.401519
101319.799398
101324.548822
101318.401519
101317.733661
101317.961042
101325.000000
101323.306905
101323.306905
101324.548822
101317.961042
101324.548822
101324.885405
101319.027413
101317.733661
101324.011399
101324.885405
101324.011399
101319.027413
101317.961042
101322.479604
101324.011399
101324.885405
101318.401519
101324.548822
101321.581481
101323.306905
101322.479604
101319.799398
101315.054140
101322.682562
101317.881634
101320.320875
101324.843148
101319.071863
101321.550188
101315.365370
101325.000000
101316.824974
101315.968276
101315.054140
101320.320875
101321.550188
101323.646845
101319.071863
101317.881634
101320.320875
101319.071863
101316.824974
101315.968276
101319.071863
101317.881634
101324.382447
101315.968276
101315.054140
101315.365370
101325.000000
101322.682562
101324.382447
101322.682562
101315.365370
101324.382447
101324.843148
101316.824974
101315.054140
101323.646845
101323.646845
101324.843148
101316.824974
101315.365370
101321.550188
101323.646845
101324.843148
101315.968276
101324.382447
101320.320875
101322.682562
101321.550188
101317.881634
101311.905187
101321.948840
101315.627893
101318.839420
101324.793487
101317.194959
101320.457946
101312.314956
101325.000000
101314.236684
101313.108748
101311.905187
101318.839420
101320.457946
101317.194959
101323.218423
101315.627893
101318.839420
101317.194959
101314.236684
101313.108748
101317.194959
101315.627893
101313.108748
101324.186924
101311.905187
101312.314956
101321.948840
101325.000000
101324.186924
101321.948840
101312.314956
101324.793487
101314.236684
101324.186924
101311.905187
101323.218423
101323.218423
101324.793487
101314.236684
101312.314956
101323.218423
101320.457946
101313.108748
101324.793487
101324.186924
101318.839420
101321.948840
101320.457946
101315.627893
101801.082555
101801.082555
101801.082555
101801.082555
101801.082555
101801.082555
101801.082555
101801.082555
101801.082555
101801.082555
101801.082555
101801.082555
101801.082555
101801.082555
101801.082555
101801.082555
101325.000000
101325.000000
101325.000000
101325.000000
101325.000000
101325.000000
101325.000000
101325.000000
101325.000000
101325.000000
101325.000000
101325.000000
101325.000000
101325.000000
101325.000000
101325.000000
101325.000000
101325.000000
101325.000000
101325.000000
101325.000000
101325.000000
101325.000000
101325.000000
101325.000000
101325.000000
101325.000000
101325.000000
101325.000000
101325.000000
101325.000000
101325.000000
101325.000000
101325.000000
101323.578193
101324.668711
101323.622685
101324.506833
101324.506833
101323.708873
101324.331097
101323.708873
101323.982396
101323.831342
101323.982396
101324.152545
101324.668711
101323.578193
101324.977577
101323.708873
101324.331097
101324.806560
101324.911718
101323.831342
101324.152545
101323.622685
101324.152545
101323.982396
101324.911718
101324.668711
101325.000000
101323.831342
101324.911718
101323.622685
101323.831342
101324.806560
101324.806560
101325.000000
101324.977577
101324.331097
101323.578193
101323.578193
101324.152545
101324.977577
101324.668711
101324.806560
101324.506833
101324.977577
101323.708873
101323.622685
101323.982396
101324.911718
101324.331097
101324.506833
101308.214630
101321.088921
101317.103162
101312.986519
101324.735285
101314.995237
101319.177843
101308.739886
101325.000000
101311.203221
101309.757394
101308.214630
101317.103162
101319.177843
101314.995237
101322.716315
101312.986519
101311.203220
101317.103162
101314.995237
101309.757394
101314.995237
101312.986519
101309.757394
101323.957772
101308.214630
101308.739886
101321.088921
101325.000000
101323.957772
101321.088921
101308.739886
101311.203220
101324.735285
101323.957772
101308.214630
101322.716315
101322.716315
101324.735285
101311.203220
101322.716315
101308.739886
101319.177843
101309.757394
101324.735285
101323.957772
101317.103162
101321.088921
101319.177843
101312.986519
101321.939485
101324.286884
101322.035256
101323.938433
101323.938433
101323.560151
101322.220780
101322.220780
101322.809554
101322.484401
101322.809554
101323.175808
101324.286884
101321.939485
101324.951734
101322.220780
101323.560151
101324.583610
101324.809968
101322.484401
101323.175808
101322.035256
101323.175808
101322.809554
101324.809968
101324.286884
101322.484401
101325.000000
101324.809968
101322.035256
101322.484401
101324.583610
101324.583610
101324.951734
101325.000000
101323.560151
101321.939485
101321.939485
101323.175808
101324.951734
101324.286884
101324.583610
101323.938433
101324.951734
101322.220780
101322.035256
101322.809554
101324.809968
101323.560151
101323.938433
101320.009062
101323.837085
101320.165241
101323.268848
101323.268848
101322.651965
101320.467785
101320.467785
101321.427928
101320.897685
101321.427928
101322.025198
101323.837085
101324.921290
101320.009062
101320.467785
101322.651965
101324.690105
101324.320972
101320.897685
101322.025198
101320.165241
101322.025198
101321.427928
101324.690105
101323.837085
101320.897685
101325.000000
101324.690105
101320.165241
101320.897685
101324.320972
101324.320972
101324.921290
101325.000000
101322.651965
101320.009062
101320.009062
101322.025198
101324.921290
101323.837085
101324.320972
101323.268848
101324.921290
101320.467785
101320.165241
101321.427928
101324.690105
101322.651965
101323.268848
101303.899472
101320.083466
101315.073054
101309.898111
101324.667232
101312.423228
101317.681091
101304.559760
101325.000000
101307.656365
101305.838847
101303.899472
101317.681091
101315.073054
101312.423228
101322.129229
101309.898111
101307.656365
101315.073054
101312.423228
101305.838847
101309.898111
101312.423228
101305.838847
101323.689837
101303.899472
101320.083466
101304.559760
101325.000000
101323.689837
101320.083466
101304.559760
101307.656365
101324.667232
101323.689837
101303.899472
101322.129229
101322.129229
101324.667232
101307.656365
101322.129229
101304.559760
101317.681091
101305.838847
101324.667232
101320.083466
101323.689837
101315.073054
101309.898111
101317.681091
101317.733661
101323.306905
101317.961042
101322.479604
101322.479604
101321.581481
101318.401519
101318.401519
101319.799398
101319.799398
101319.027413
101320.668966
101323.306905
101324.885405
101317.733661
101318.401519
101321.581481
101324.548822
101324.011399
101319.027413
101320.668966
101317.961042
101320.668966
101319.799398
101324.548822
101323.306905
101319.027413
101325.000000
101324.548822
101317.961042
101319.027413
101324.011399
101324.011399
101324.885405
101325.000000
101321.581481
101317.733661
101317.733661
101320.668966
101324.885405
101323.306905
101324.011399
101322.479604
101324.885405
101318.401519
101317.961042
101319.799398
101324.548822
101321.581481
101322.479604
101315.054140
101322.682562
101321.550188
101315.365370
101321.550188
101320.320875
101315.968276
101315.968276
101317.881634
101317.881634
101316.824974
101319.071863
101322.682562
101324.843148
101315.968276
101315.054140
101320.320875
101324.382447
101316.824974
101323.646845
101319.071863
101315.365370
101317.881634
101319.071863
101324.382447
101322.682562
101316.824974
101325.000000
101315.365370
101324.382447
101316.824974
101323.646845
101323.646845
101324.843148
101325.000000
101320.320875
101315.054140
101315.054140
101319.071863
101324.843148
101322.682562
101323.646845
101321.550188
101315.968276
101315.365370
101324.843148
101317.881634
101324.382447
101320.320875
101321.550188
101298.863216
101318.909992
101312.703699
101306.293605
101324.587807
101309.421415
101315.934220
101299.681101
101325.000000
101303.516801
101301.265480
101298.863216
101315.934220
101312.703699
101309.421415
101306.293605
101321.444036
101303.516801
101312.703699
101309.421415
101301.265480
101306.293605
101309.421415
101301.265480
101323.377129
101298.863216
101318.909992
101299.681101
101325.000000
101323.377129
101299.681101
101318.909992
101303.516801
101324.587807
101323.377129
101298.863216
101321.444036
101321.444036
101321.444036
101303.516801
101324.587807
101299.681101
101301.265480
101315.934220
101324.587807
101318.909992
101323.377129
101312.703699
101306.293605
101315.934220
101311.905187
101321.948840
101320.457946
101312.314956
101320.457946
101318.839420
101313.108748
101313.108748
101315.627893
101315.627893
101314.236684
101317.194959
101321.948840
101324.793487
101313.108748
101311.905187
101318.839420
101324.186924
101314.236684
101323.218423
101317.194959
101315.627893
101312.314956
101317.194959
101324.186924
101321.948840
101314.236684
101325.000000
101312.314956
101324.186924
101314.236684
101323.218423
101323.218423
101324.793487
101325.000000
101318.839420
101311.905187
101311.905187
101317.194959
101323.218423
101321.948840
101324.793487
101320.457946
101313.108748
101312.314956
101315.627893
101324.793487
101324.186924
101318.839420
101320.457946
101308.214630
101321.088921
101319.177843
101319.177843
101317.103162
101308.739886
101309.757394
101309.757394
101312.986519
101312.986519
101311.203221
101314.995237
101321.088921
101324.735285
101309.757394
101308.214630
101317.103162
101323.957772
101311.203220
101322.716315
101314.995237
101312.986519
101308.739886
101323.957772
101321.088921
101314.995237
101311.203220
101308.739886
101325.000000
101311.203220
101323.957772
101322.716315
101322.716315
101324.735285
101325.000000
101308.214630
101317.103162
101308.214630
101314.995237
101322.716315
101321.088921
101324.735285
101319.177843
101309.757394
101308.739886
101312.986519
101324.735285
101323.957772
101317.103162
101319.177843
101293.021241
101317.548781
101309.955286
101302.112436
101324.495676
101305.939360
101313.907878
101294.021935
101325.000000
101298.714973
101295.960448
101293.021241
101313.907878
101309.955286
101305.939360
101302.112436
101298.714973
101320.649223
101295.960448
101309.955286
101305.939360
101302.112436
101295.960448
101305.939360
101323.014392
101317.548781
101293.021241
101294.021935
101325.000000
101323.014392
101294.021935
101317.548781
101298.714973
101324.495676
101323.014392
101293.021241
101320.649223
101320.649223
101320.649223
101298.714973
101324.495676
101294.021935
101295.960448
101313.907878
101317.548781
101324.495676
101323.014392
101309.955286
101302.112436
101313.907878
101303.899472
101320.083466
101317.681091
101317.681091
101315.073054
101305.838847
101304.559760
101305.838847
101309.898111
101309.898111
101312.423228
101307.656365
101320.083466
101305.838847
101324.667232
101303.899472
101315.073054
101323.689837
101307.656365
101322.129229
101312.423228
101309.898111
101304.559760
101320.083466
101323.689837
101312.423228
101307.656365
101304.559760
101307.656365
101325.000000
101323.689837
101322.129229
101322.129229
101324.667232
101325.000000
101303.899472
101303.899472
101315.073054
101322.129229
101312.423228
101320.083466
101324.667232
101317.681091
101305.838847
101304.559760
101309.898111
101323.689837
101324.667232
101315.073054
101317.681091
101286.277534
101315.977462
101306.782644
101297.285888
101324.389324
101301.919837
101311.568762
101287.489256
101325.000000
101289.836563
101293.171966
101286.277534
101311.568762
101306.782644
101301.919837
101297.285888
101293.171966
101319.731727
101289.836563
101297.285888
101306.782644
101301.919837
101289.836563
101322.595665
101315.977462
101301.919837
101286.277534
101287.489256
101322.595665
101325.000000
101287.489256
101315.977462
101293.171966
101324.389324
101286.277534
101322.595665
101319.731727
101319.731727
101319.731727
101293.171966
101287.489256
101324.389324
101289.836563
101311.568762
101315.977462
101324.389324
101322.595665
101306.782644
101297.285888
101311.568762
101298.863216
101318.909992
101315.934220
101315.934220
101312.703699
101301.265480
101299.681101
101301.265480
101306.293605
101306.293605
101309.421415
101303.516801
101318.909992
101301.265480
101324.587807
101312.703699
101323.377129
101298.863216
101303.516801
101321.444036
101309.421415
101306.293605
101318.909992
101299.681101
101323.377129
101303.516801
101309.421415
101303.516801
101299.681101
101325.000000
101323.377129
101321.444036
101321.444036
101324.587807
101325.000000
101298.863216
101298.863216
101312.703699
101321.444036
101309.421415
101318.909992
101324.587807
101301.265480
101315.934220
101299.681101
101306.293605
101323.377129
101324.587807
101312.703699
101315.934220
101293.021241
101317.548781
101313.907878
101295.960448
101309.955286
101313.907878
101294.021935
101295.960448
101302.112436
101302.112436
101305.939360
101317.548781
101298.714973
101295.960448
101324.495676
101309.955286
101323.014392
101293.021241
101298.714973
101305.939360
101302.112436
101320.649223
101317.548781
101294.021935
101323.014392
101298.714973
101298.714973
101305.939360
101294.021935
101325.000000
101323.014392
101320.649223
101320.649223
101324.495676
101293.021241
101293.021241
101325.000000
101320.649223
101309.955286
101305.939360
101317.548781
101324.495676
101295.960448
101302.112436
101294.021935
101313.907878
101323.014392
101324.495676
101309.955286
101313.907878
101278.529785
101314.172196
101303.137641
101291.740735
101297.301864
101324.267137
101308.881386
101279.983954
101325.000000
101282.800920
101286.803683
101308.881386
101278.529785
101303.137641
101297.301864
101286.803683
101291.740735
101318.677630
101282.800920
101291.740735
101282.800920
101303.137641
101314.172195
101297.301864
101322.114596
101278.529785
101297.301864
101279.983953
101322.114596
101325.000000
101279.983953
101314.172195
101286.803683
101324.267137
101278.529785
101322.114596
101318.677630
101318.677630
101318.677630
101286.803683
101279.983953
101282.800920
101324.267137
101314.172195
101308.881386
101324.267137
101322.114596
101291.740735
101303.137641
101308.881386
101286.277534
101315.977462
101311.568762
101289.836563
101306.782644
101311.568762
101287.489256
101289.836563
101297.285888
101297.285888
101301.919837
101315.977462
101289.836563
101293.171966
101324.389324
101322.595665
101306.782644
101293.171966
101286.277534
101297.285888
101301.919837
101315.977462
101319.731727
101293.171966
101322.595665
101293.171966
101287.489256
101301.919836
101287.489256
101319.731727
101319.731727
101325.000000
101322.595665
101324.389324
101286.277534
101286.277534
101319.731727
101325.000000
101306.782644
101315.977462
101301.919836
101324.389324
101289.836563
101297.285888
101287.489256
101311.568762
101322.595665
101324.389324
101306.782644
101311.568762
101269.655326
101312.104400
101298.962567
101285.389183
101292.012325
101324.127181
101305.803199
101271.387198
101325.000000
101305.803199
101298.962567
101274.742122
101279.509297
101269.655326
101279.509297
101292.012325
101285.389183
101274.742122
101285.389183
101317.470241
101312.104400
101274.742122
101321.563568
101298.962567
101292.012325
101269.655325
101292.012325
101321.563568
101271.387198
101325.000000
101271.387198
101312.104400
101279.509297
101324.127181
101317.470241
101269.655325
101317.470241
101321.563568
101279.509297
101317.470241
101271.387198
101274.742122
101324.127181
101312.104400
101305.803199
101324.127181
101285.389183
101321.563568
101298.962567
101305.803199
101278.529785
101314.172195
101308.881386
101282.800920
101303.137641
101308.881386
101279.983954
101291.740735
101282.800920
101297.301864
101291.740735
101314.172195
101282.800920
101322.114596
101324.267137
101303.137641
101286.803683
101286.803683
101278.529785
101291.740735
101297.301864
101286.803683
101314.172195
101286.803683
101322.114596
101318.677630
101279.983954
101279.983953
101297.301864
101318.677630
101318.677630
101322.114596
101325.000000
101324.267137
101318.677630
101278.529785
101278.529785
101325.000000
101314.172195
101303.137641
101297.301863
101282.800920
101324.267137
101291.740735
101279.983953
101308.881386
101322.114596
101324.267137
101303.137641
101308.881386
101259.605581
101309.762756
101294.234568
101278.196466
101286.022269
101323.968691
101302.317354
101261.651934
101325.000000
101302.317354
101294.234568
101271.248882
101286.022268
101278.196465
101265.616062
101259.605580
101271.248882
101265.616062
101278.196465
101309.762756
101265.616062
101316.102952
101320.939565
101259.605580
101294.234568
101286.022268
101286.022268
101320.939565
101261.651934
101325.000000
101261.651934
101309.762756
101271.248882
101316.102952
101323.968691
101259.605580
101271.248882
101316.102952
101320.939565
101316.102952
101265.616062
101261.651934
101309.762756
101323.968691
101302.317354
101278.196465
101323.968691
101320.939565
101294.234568
101302.317354
101269.655326
101305.803199
101312.104400
101274.742123
101298.962567
101305.803199
101271.387198
101285.389183
101292.012325
101274.742123
101312.104400
101285.389183
101274.742122
101321.563568
101298.962567
101324.127181
101279.509297
101279.509297
101269.655326
101279.509297
101285.389183
101292.012325
101312.104400
101279.509297