# vtk DataFile Version 3.0
Time Step 44, Physical Time = 0.000440s, Residual = 6.44e-03
ASCII
DATASET UNSTRUCTURED_GRID
POINTS 5000 float
0.318712 0.385257 0.000000
-0.318712 0.385257 0.000000
-0.318712 -0.385257 0.000000
0.318712 -0.385257 0.000000
0.093691 0.491144 0.000000
-0.093691 0.491144 0.000000
-0.093691 -0.491144 0.000000
0.093691 -0.491144 0.000000
0.404508 0.293893 0.000000
-0.404508 0.293893 0.000000
-0.404508 -0.293893 0.000000
0.404508 -0.293893 0.000000
0.438153 0.240877 0.000000
-0.438153 0.240877 0.000000
-0.438153 -0.240877 0.000000
0.438153 -0.240877 0.000000
0.500000 0.000000 0.000000
-0.500000 -0.000000 0.000000
0.364484 0.342274 0.000000
-0.364484 0.342274 0.000000
-0.364484 -0.342274 0.000000
0.364484 -0.342274 0.000000
0.496057 0.062667 0.000000
-0.496057 0.062667 0.000000
-0.496057 -0.062667 0.000000
0.496057 -0.062667 0.000000
0.212890 0.452414 0.000000
-0.212890 0.452414 0.000000
-0.212890 -0.452414 0.000000
0.212890 -0.452414 0.000000
0.154508 0.475528 0.000000
-0.154508 0.475528 0.000000
-0.154508 -0.475528 0.000000
0.154508 -0.475528 0.000000
0.267913 0.422164 0.000000
-0.267913 0.422164 0.000000
-0.267913 -0.422164 0.000000
0.267913 -0.422164 0.000000
0.031395 0.499013 0.000000
-0.031395 0.499013 0.000000
-0.031395 -0.499013 0.000000
0.031395 -0.499013 0.000000
0.464888 0.184062 0.000000
-0.464888 0.184062 0.000000
-0.464888 -0.184062 0.000000
0.464888 -0.184062 0.000000
0.484292 0.124345 0.000000
-0.484292 0.124345 0.000000
-0.484292 -0.124345 0.000000
0.484292 -0.124345 0.000000
-0.031454 0.499951 0.000000
0.438977 0.241329 0.000000
-0.268417 0.422957 0.000000
0.365169 0.342917 0.000000
-0.496990 -0.062784 0.000000
0.319311 -0.385981 0.000000
0.405269 0.294445 0.000000
-0.093867 0.492067 0.000000
0.500940 -0.000000 0.000000
-0.213290 0.453264 0.000000
-0.154799 0.476422 0.000000
0.031454 0.499951 0.000000
0.465762 0.184408 0.000000
0.319311 0.385981 0.000000
0.365169 -0.342917 0.000000
0.405269 -0.294445 0.000000
-0.365169 0.342917 0.000000
-0.319311 0.385981 0.000000
0.268417 0.422957 0.000000
0.213290 0.453264 0.000000
-0.319311 -0.385981 0.000000
0.154799 -0.476422 0.000000
-0.485202 -0.124579 0.000000
0.154799 0.476422 0.000000
0.268417 -0.422957 0.000000
0.093867 0.492067 0.000000
-0.031454 -0.499951 0.000000
-0.500940 0.000000 0.000000
0.438977 -0.241329 0.000000
-0.438977 -0.241329 0.000000
0.093867 -0.492067 0.000000
-0.485202 0.124579 0.000000
0.485202 0.124579 0.000000
-0.496990 0.062784 0.000000
0.213290 -0.453264 0.000000
0.031454 -0.499951 0.000000
0.496990 -0.062784 0.000000
0.465762 -0.184408 0.000000
-0.465762 -0.184408 0.000000
-0.213290 -0.453264 0.000000
-0.093867 -0.492067 0.000000
-0.405269 -0.294445 0.000000
0.496990 0.062784 0.000000
0.485202 -0.124579 0.000000
-0.154799 -0.476422 0.000000
-0.365169 -0.342917 0.000000
-0.465762 0.184408 0.000000
-0.438977 0.241329 0.000000
-0.405269 0.294445 0.000000
-0.268417 -0.422957 0.000000
-0.031523 0.501039 0.000000
0.439932 0.241854 0.000000
-0.269001 0.423877 0.000000
0.365964 0.343663 0.000000
-0.498071 -0.062921 0.000000
0.320005 -0.386820 0.000000
0.406150 0.295085 0.000000
-0.094071 0.493137 0.000000
0.502029 -0.000000 0.000000
-0.213754 0.454250 0.000000
-0.155136 0.477458 0.000000
0.031523 0.501039 0.000000
0.466775 0.184809 0.000000
0.365964 -0.343663 0.000000
0.406150 -0.295085 0.000000
0.320005 0.386820 0.000000
-0.365964 0.343663 0.000000
-0.320005 0.386820 0.000000
0.269001 0.423877 0.000000
0.213754 0.454250 0.000000
-0.320005 -0.386820 0.000000
0.155136 -0.477458 0.000000
-0.486257 -0.124850 0.000000
0.155136 0.477458 0.000000
0.269001 -0.423877 0.000000
0.094071 0.493137 0.000000
-0.031523 -0.501039 0.000000
-0.502029 0.000000 0.000000
0.439932 -0.241854 0.000000
-0.439932 -0.241854 0.000000
0.094071 -0.493137 0.000000
-0.486257 0.124850 0.000000
0.486257 0.124850 0.000000
-0.498071 0.062921 0.000000
0.213754 -0.454250 0.000000
0.031523 -0.501039 0.000000
0.466775 -0.184809 0.000000
0.498071 -0.062921 0.000000
-0.466775 -0.184809 0.000000
-0.213754 -0.454250 0.000000
-0.094071 -0.493137 0.000000
-0.406150 -0.295085 0.000000
0.498071 0.062921 0.000000
-0.155136 -0.477458 0.000000
0.486257 -0.124850 0.000000
-0.365964 -0.343663 0.000000
-0.466775 0.184809 0.000000
-0.439932 0.241854 0.000000
-0.406150 0.295085 0.000000
-0.269001 -0.423877 0.000000
-0.031604 0.502329 0.000000
0.441064 0.242477 0.000000
-0.269693 0.424969 0.000000
0.366906 0.344547 0.000000
-0.499353 -0.063083 0.000000
0.320829 -0.387816 0.000000
0.407196 0.295845 0.000000
-0.094313 0.494407 0.000000
0.503322 -0.000000 0.000000
-0.214304 0.455419 0.000000
-0.155535 0.478688 0.000000
0.031604 0.502329 0.000000
0.467977 0.185285 0.000000
0.366906 -0.344547 0.000000
0.407196 -0.295845 0.000000
0.320829 0.387816 0.000000
0.269693 0.424969 0.000000
-0.366906 0.344547 0.000000
-0.320829 0.387816 0.000000
0.214304 0.455419 0.000000
-0.320829 -0.387816 0.000000
0.155535 -0.478688 0.000000
-0.487509 -0.125171 0.000000
0.155535 0.478688 0.000000
0.269693 -0.424969 0.000000
-0.031604 -0.502329 0.000000
0.094313 0.494407 0.000000
-0.503322 0.000000 0.000000
0.441064 -0.242477 0.000000
-0.441064 -0.242477 0.000000
-0.487509 0.125171 0.000000
0.094313 -0.494407 0.000000
0.487509 0.125171 0.000000
-0.499353 0.063083 0.000000
0.214304 -0.455419 0.000000
0.031604 -0.502329 0.000000
0.467977 -0.185285 0.000000
0.499353 -0.063083 0.000000
-0.467977 -0.185285 0.000000
-0.214304 -0.455419 0.000000
-0.094313 -0.494407 0.000000
-0.407196 -0.295845 0.000000
0.499353 0.063083 0.000000
-0.155535 -0.478688 0.000000
0.487509 -0.125171 0.000000
-0.467977 0.185285 0.000000
-0.366906 -0.344547 0.000000
-0.441064 0.242477 0.000000
-0.407196 0.295845 0.000000
-0.269693 -0.424969 0.000000
-0.031700 0.503862 0.000000
0.442411 0.243217 0.000000
-0.270517 0.426266 0.000000
0.368026 0.345599 0.000000
-0.500877 -0.063276 0.000000
0.321809 -0.389000 0.000000
0.408439 0.296748 0.000000
-0.094601 0.495916 0.000000
0.504858 -0.000000 0.000000
-0.214958 0.456810 0.000000
-0.156010 0.480149 0.000000
0.031700 0.503862 0.000000
0.469405 0.185851 0.000000
0.368026 -0.345599 0.000000
0.408439 -0.296748 0.000000
0.321809 0.389000 0.000000
0.270517 0.426266 0.000000
-0.368026 0.345599 0.000000
-0.321809 0.389000 0.000000
0.214958 0.456810 0.000000
-0.321809 -0.389000 0.000000
0.156010 -0.480149 0.000000
0.270517 -0.426266 0.000000
-0.488997 -0.125553 0.000000
0.156010 0.480149 0.000000
-0.031700 -0.503862 0.000000
0.094601 0.495916 0.000000
-0.504858 0.000000 0.000000
0.442411 -0.243217 0.000000
-0.442411 -0.243217 0.000000
-0.488997 0.125553 0.000000
0.094601 -0.495916 0.000000
0.488997 0.125553 0.000000
-0.500877 0.063276 0.000000
0.214958 -0.456810 0.000000
0.031700 -0.503862 0.000000
0.469405 -0.185851 0.000000
0.500877 -0.063276 0.000000
-0.469405 -0.185851 0.000000
-0.214958 -0.456810 0.000000
-0.094601 -0.495916 0.000000
-0.408439 -0.296748 0.000000
-0.469405 0.185851 0.000000
0.500877 0.063276 0.000000
-0.156010 -0.480149 0.000000
0.488997 -0.125553 0.000000
-0.368026 -0.345599 0.000000
-0.442411 0.243217 0.000000
-0.408439 0.296748 0.000000
-0.270517 -0.426266 0.000000
-0.031815 0.505686 0.000000
0.444012 0.244098 0.000000
-0.271496 0.427809 0.000000
0.369358 0.346850 0.000000
-0.502691 -0.063505 0.000000
0.322974 -0.390408 0.000000
0.409918 0.297823 0.000000
-0.094943 0.497711 0.000000
0.506686 -0.000000 0.000000
-0.215736 0.458463 0.000000
-0.156575 0.481887 0.000000
0.031815 0.505686 0.000000
0.369358 -0.346850 0.000000
0.409918 -0.297823 0.000000
0.471105 0.186524 0.000000
0.322974 0.390408 0.000000
0.271496 0.427809 0.000000
-0.369358 0.346850 0.000000
-0.322974 0.390408 0.000000
0.215736 0.458463 0.000000
0.156575 -0.481887 0.000000
-0.322974 -0.390408 0.000000
0.271496 -0.427809 0.000000
-0.490768 -0.126008 0.000000
0.156575 0.481887 0.000000
-0.031815 -0.505686 0.000000
0.094943 0.497711 0.000000
-0.506686 0.000000 0.000000
0.444012 -0.244098 0.000000
-0.490768 0.126008 0.000000
-0.444012 -0.244098 0.000000
0.094943 -0.497711 0.000000
0.490768 0.126008 0.000000
-0.502691 0.063505 0.000000
0.215736 -0.458463 0.000000
0.031815 -0.505686 0.000000
0.471105 -0.186524 0.000000
-0.471105 -0.186524 0.000000
0.502691 -0.063505 0.000000
-0.215736 -0.458463 0.000000
-0.094943 -0.497711 0.000000
-0.409918 -0.297823 0.000000
-0.471105 0.186524 0.000000
0.502691 0.063505 0.000000
-0.156575 -0.481887 0.000000
0.490768 -0.126008 0.000000
-0.369358 -0.346850 0.000000
-0.444012 0.244098 0.000000
-0.409918 0.297823 0.000000
-0.271496 -0.427809 0.000000
-0.031952 0.507855 0.000000
0.445917 0.245145 0.000000
-0.272661 0.429644 0.000000
0.370943 0.348338 0.000000
-0.504847 -0.063777 0.000000
0.324359 -0.392083 0.000000
0.411676 0.299100 0.000000
-0.095351 0.499846 0.000000
0.508859 -0.000000 0.000000
-0.216662 0.460430 0.000000
-0.157246 0.483954 0.000000
0.031952 0.507855 0.000000
0.370943 -0.348338 0.000000
0.411676 -0.299100 0.000000
0.324359 0.392083 0.000000
0.473126 0.187324 0.000000
0.272661 0.429644 0.000000
-0.370943 0.348338 0.000000
-0.324359 0.392083 0.000000
0.216662 0.460430 0.000000
0.157246 -0.483954 0.000000
-0.324359 -0.392083 0.000000
0.272661 -0.429644 0.000000
0.157246 0.483954 0.000000
-0.492873 -0.126548 0.000000
-0.031952 -0.507855 0.000000
0.095351 0.499846 0.000000
0.445917 -0.245145 0.000000
-0.508859 0.000000 0.000000
-0.492873 0.126548 0.000000
-0.445917 -0.245145 0.000000
0.095351 -0.499846 0.000000
-0.504847 0.063777 0.000000
0.216662 -0.460430 0.000000
0.492873 0.126548 0.000000
0.031952 -0.507855 0.000000
0.473126 -0.187324 0.000000
-0.473126 -0.187324 0.000000
0.504847 -0.063777 0.000000
-0.216662 -0.460430 0.000000
-0.095351 -0.499846 0.000000
-0.473126 0.187324 0.000000
-0.411676 -0.299100 0.000000
-0.157246 -0.483954 0.000000
0.504847 0.063777 0.000000
0.492873 -0.126548 0.000000
-0.370943 -0.348338 0.000000
-0.445917 0.245145 0.000000
-0.411676 0.299100 0.000000
-0.272661 -0.429644 0.000000
0.318712 0.385257 0.100000
-0.318712 0.385257 0.100000
[...]
POINT_DATA 5000
SCALARS pressure float 1
LOOKUP_TABLE default
101617.608544
101617.608544
101617.608544
101617.608544
101617.608544
101617.608544
101617.608544
101617.608544
101617.608544
101617.608544
101617.608544
101617.608544
101617.608544
101617.608544
101617.608544
101617.608544
101325.000000
101325.000000
101325.000000
101325.000000
101325.000000
101325.000000
101325.000000
101325.000000
101325.000000
101325.000000
101325.000000
101325.000000
101325.000000
101325.000000
101325.000000
101325.000000
101325.000000
101325.000000
101325.000000
101325.000000
101325.000000
101325.000000
101325.000000
101325.000000
101325.000000
101325.000000
101325.000000
101325.000000
101325.000000
101325.000000
101325.000000
101325.000000
101325.000000
101325.000000
101324.126133
101324.796384
101324.374563
101324.588881
101324.986219
101324.479140
101324.696891
101324.153478
101325.000000
101324.281723
101324.206451
101324.126133
101324.881109
101324.479140
101324.588881
101324.696891
101324.588881
101324.479140
101324.374563
101324.281723
101324.479140
101324.206451
101324.945740
101324.206451
101324.374563
101324.153478
101324.126133
101325.000000
101324.796384
101324.796384
101324.153478
101324.945740
101324.945740
101324.986219
101324.281723
101324.126133
101324.986219
101324.881109
101324.881109
101324.281723
101324.153478
101324.696891
101324.986219
101324.945740
101324.206451
101324.588881
101324.881109
101324.796384
101324.696891
101324.374563
101323.118955
101324.561707
101323.653714
101324.115044
101324.970335
101323.878820
101324.347542
101323.177817
101325.000000
101323.453870
101323.291844
101323.118955
101324.744080
101324.115044
101324.347542
101323.878820
101324.115044
101323.878820
101323.653714
101323.453870
101323.878820
101323.291844
101324.883203
101323.291844
101323.653714
101323.177817
101323.118955
101325.000000
101324.561707
101324.561707
101323.177817
101324.883203
101324.883203
101324.970335
101323.453870
101323.118955
101324.744080
101324.970335
101324.744080
101323.453870
101323.177817
101324.347542
101324.970335
101323.291844
101324.883203
101324.115044
101324.744080
101324.561707
101324.347542
101323.653714
101321.932483
101324.285252
101322.804543
101323.556857
101324.951623
101323.171635
101323.936004
101322.028474
101325.000000
101322.478646
101322.214423
101321.932483
101324.582658
101323.556857
101323.936004
101323.171635
101322.804543
101323.556857
101323.171635
101322.478646
101323.171635
101322.214423
101324.809533
101322.214423
101322.804543
101321.932483
101322.028474
101325.000000
101324.285252
101324.285252
101324.809533
101322.028473
101324.809533
101324.951623
101322.478646
101321.932483
101324.582658
101324.951623
101324.582658
101322.478646
101322.028473
101323.936004
101324.951623
101322.214423
101324.809533
101324.582658
101323.556857
101324.285252
101323.936004
101322.804543
101320.533983
101323.959394
101321.803620
101322.898919
101324.929568
101322.338072
101323.450921
101320.673735
101325.000000
101321.329145
101320.944460
101320.533983
101324.392389
101322.898919
101323.450921
101322.338072
101321.803620
101322.898919
101322.338072
101321.329145
101322.338072
101320.944460
101321.803620
101324.722698
101320.944460
101320.533983
101320.673735
101325.000000
101323.959394
101323.959394
101324.722698
101320.673735
101324.722698
101324.929568
101321.329145
101320.533983
101324.392389
101324.929568
101324.392389
101321.329145
101320.673735
101323.450921
101324.392389
101324.929568
101320.944460
101324.722698
101322.898919
101323.959394
101323.450921
101321.803620
101318.887103
101323.575663
101320.624930
101322.124129
101324.903596
101321.356465
101322.879686
101319.078391
101325.000000
101319.975488
101319.448947
101318.887103
101322.124129
101322.879686
101324.168328
101321.356465
101320.624930
101322.124129
101321.356465
101319.975488
101319.448947
101321.356465
101320.624930
101324.620441
101319.448947
101318.887103
101319.078391
101325.000000
101323.575663
101324.620441
101323.575663
101319.078391
101324.620441
101324.903596
101319.975488
101318.887103
101324.168328
101324.168328
101324.903596
101319.975488
101319.078391
101322.879686
101324.168328
101324.903596
101319.448947
101324.620441
101322.124129
101323.575663
101322.879686
101320.624930
101316.951702
101323.124704
101319.239741
101321.213601
101324.873074
101320.202888
101322.208375
101317.203554
101325.000000
101318.384680
101317.691431
101316.951702
101321.213601
101322.208375
101320.202888
101323.905012
101319.239741
101321.213601
101320.202888
101318.384680
101317.691431
101320.202888
101319.239741
101317.691431
101324.500269
101316.951702
101317.203554
101323.124704
101325.000000
101324.500269
101323.124704
101317.203554
101324.873074
101318.384680
101324.500269
101316.951702
101323.905012
101323.905012
101324.873074
101318.384680
101317.203554
101323.905012
101322.208375
101317.691431
101324.873074
101324.500269
101321.213601
101323.124704
101322.208375
101319.239741
101617.608544
101617.608544
101617.608544
101617.608544
101617.608544
101617.608544
101617.608544
101617.608544
101617.608544
101617.608544
101617.608544
101617.608544
101617.608544
101617.608544
101617.608544
101617.608544
101325.000000
101325.000000
101325.000000
101325.000000
101325.000000
101325.000000
101325.000000
101325.000000
101325.000000
101325.000000
101325.000000
101325.000000
101325.000000
101325.000000
101325.000000
101325.000000
101325.000000
101325.000000
101325.000000
101325.000000
101325.000000
101325.000000
101325.000000
101325.000000
101325.000000
101325.000000
101325.000000
101325.000000
101325.000000
101325.000000
101325.000000
101325.000000
101325.000000
101325.000000
101324.126133
101324.796384
101324.153478
101324.696891
101324.696891
101324.206451
101324.588881
101324.206451
101324.374563
101324.281723
101324.374563
101324.479140
101324.796384
101324.126133
101324.986219
101324.206451
101324.588881
101324.881109
101324.945740
101324.281723
101324.479140
101324.153478
101324.479140
101324.374563
101324.945740
101324.796384
101325.000000
101324.281723
101324.945740
101324.153478
101324.281723
101324.881109
101324.881109
101325.000000
101324.986219
101324.588881
101324.126133
101324.126133
101324.479140
101324.986219
101324.796384
101324.881109
101324.696891
101324.986219
101324.206451
101324.153478
101324.374563
101324.945740
101324.588881
101324.696891
101314.683422
101322.596183
101320.146467
101317.616307
101324.837301
101318.850901
101321.421602
101315.006254
101325.000000
101316.520262
101315.631632
101314.683422
101320.146467
101321.421602
101318.850901
101323.596408
101317.616307
101316.520262
101320.146467
101318.850901
101315.631632
101318.850901
101317.616307
101315.631632
101324.359429
101314.683422
101315.006254
101322.596183
101325.000000
101324.359429
101322.596183
101315.006254
101316.520262
101324.837301
101324.359429
101314.683422
101323.596408
101323.596408
101324.837301
101316.520261
101323.596408
101315.006254
101321.421602
101315.631632
101324.837301
101324.359429
101320.146467
101322.596183
101321.421602
101317.616307
101323.118955
101324.561707
101323.177817
101324.347542
101324.347542
101324.115044
101323.291844
101323.291844
101323.653714
101323.453870
101323.653714
101323.878820
101324.561707
101323.118955
101324.970335
101323.291844
101324.115044
101324.744080
101324.883203
101323.453870
101323.878820
101323.177817
101323.878820
101323.653714
101324.883203
101324.561707
101323.453870
101325.000000
101324.883203
101323.177817
101323.453870
101324.744080
101324.744080
101324.970335
101325.000000
101324.115044
101323.118955
101323.118955
101323.878820
101324.970335
101324.561707
101324.744080
101324.347542
101324.970335
101323.291844
101323.177817
101323.653714
101324.883203
101324.115044
101324.347542
101321.932483
101324.285252
101322.028474
101323.936004
101323.936004
101323.556857
101322.214423
101322.214423
101322.804543
101322.478646
101322.804543
101323.171635
101324.285252
101324.951623
101321.932483
101322.214423
101323.556857
101324.809533
101324.582658
101322.478646
101323.171635
101322.028474
101323.171635
101322.804543
101324.809533
101324.285252
101322.478646
101325.000000
101324.809533
101322.028474
101322.478646
101324.582658
101324.582658
101324.951623
101325.000000
101323.556857
101321.932483
101321.932483
101323.171635
101324.951623
101324.285252
101324.582658
101323.936004
101324.951623
101322.214423
101322.028473
101322.804543
101324.809533
101323.556857
101323.936004
101312.031252
101321.978213
101318.898728
101315.718118
101324.795475
101317.270099
101320.501672
101312.437076
101325.000000
101314.340303
101313.223225
101312.031252
101320.501672
101318.898728
101317.270099
101323.235575
101315.718118
101314.340303
101318.898728
101317.270099
101313.223225
101315.718118
101317.270099
101313.223225
101324.194751
101312.031252
101321.978213
101312.437076
101325.000000
101324.194751
101321.978213
101312.437076
101314.340303
101324.795475
101324.194751
101312.031252
101323.235575
101323.235575
101324.795475
101314.340303
101323.235575
101312.437076
101320.501672
101313.223225
101324.795475
101321.978213
101324.194751
101318.898728
101315.718118
101320.501672
101320.533983
101323.959394
101320.673735
101323.450921
101323.450921
101322.898919
101320.944460
101320.944460
101321.803620
101321.803620
101321.329145
101322.338072
101323.959394
101324.929568
101320.533983
101320.944460
101322.898919
101324.722698
101324.392389
101321.329145
101322.338072
101320.673735
101322.338072
101321.803620
101324.722698
101323.959394
101321.329145
101325.000000
101324.722698
101320.673735
101321.329145
101324.392389
101324.392389
101324.929568
101325.000000
101322.898919
101320.533983
101320.533983
101322.338072
101324.929568
101323.959394
101324.392389
101323.450921
101324.929568
101320.944460
101320.673735
101321.803620
101324.722698
101322.898919
101323.450921
101318.887103
101323.575663
101322.879686
101319.078391
101322.879686
101322.124129
101319.448947
101319.448947
101320.624930
101320.624930
101319.975488
101321.356465
101323.575663
101324.903596
101319.448947
101318.887103
101322.124129
101324.620441
101319.975488
101324.168328
101321.356465
101319.078391
101320.624930
101321.356465
101324.620441
101323.575663
101319.975488
101325.000000
101319.078391
101324.620441
101319.975488
101324.168328
101324.168328
101324.903596
101325.000000
101322.124129
101318.887103
101318.887103
101321.356465
101324.903596
101323.575663
101324.168328
101322.879686
101319.448947
101319.078391
101324.903596
101320.624930
101324.620441
101322.124129
101322.879686
101308.935882
101321.256976
101317.442482
101313.502727
101324.746659
101315.425133
101319.428015
101309.438568
101325.000000
101311.796056
101310.412355
101308.935882
101319.428015
101317.442482
101315.425133
101313.502727
101322.814443
101311.796056
101317.442482
101315.425133
101310.412355
101313.502727
101315.425133
101310.412355
101324.002555
101308.935882
101321.256976
101309.438568
101325.000000
101324.002555
101309.438568
101321.256976
101311.796056
101324.746659
101324.002555
101308.935882
101322.814443
101322.814443
101322.814443
101311.796056
101324.746659
101309.438568
101310.412355
101319.428015
101324.746659
101321.256976
101324.002555
101317.442482
101313.502727
101319.428015
101316.951702
101323.124704
101322.208375
101317.203554
101322.208375
101321.213601
101317.691431
101317.691431
101319.239741
101319.239741
101318.384680
101320.202888
101323.124704
101324.873074
101317.691431
101316.951702
101321.213601
101324.500269
101318.384680
101323.905012
101320.202888
101319.239741
101317.203554
101320.202888
101324.500269
101323.124704
101318.384680
101325.000000
101317.203554
101324.500269
101318.384680
101323.905012
101323.905012
101324.873074
101325.000000
101321.213601
101316.951702
101316.951702
101320.202888
101323.905012
101323.124704
101324.873074
101322.208375
101317.691431
101317.203554
101319.239741
101324.873074
101324.500269
101321.213601
101322.208375
101314.683422
101322.596183
101321.421602
101321.421602
101320.146467
101315.006254
101315.631632
101315.631632
101317.616307
101317.616307
101316.520262
101318.850901
101322.596183
101324.837301
101315.631632
101314.683422
101320.146467
101324.359429
101316.520262
101323.596408
101318.850901
101317.616307
101315.006254
101324.359429
101322.596183
101318.850901
101316.520262
101315.006254
101325.000000
101316.520262
101324.359429
101323.596408
101323.596408
101324.837301
101325.000000
101314.683422
101320.146467
101314.683422
101318.850900
101323.596408
101322.596183
101324.837301
101321.421602
101315.631632
101315.006254
101317.616307
101324.837301
101324.359429
101320.146467
101321.421602
101305.345303
101320.420352
101315.753259
101310.932909
101324.690034
101313.285002
101318.182591
101305.960348
101325.000000
101308.844770
101307.151791
101305.345303
101318.182591
101315.753259
101313.285002
101310.932909
101308.844770
101322.325937
101307.151791
101315.753259
101313.285002
101310.932909
101307.151791
101313.285002
101323.779611
101320.420352
101305.345303
101305.960348
101325.000000
101323.779611
101305.960348
101320.420352
101308.844770
101324.690034
101323.779611
101305.345303
101322.325937
101322.325937
101322.325937
101308.844770
101324.690034
101305.960348
101307.151791
101318.182591
101320.420352
101324.690034
101323.779611
101315.753259
101310.932909
101318.182591
101312.031252
101321.978213
101320.501672
101320.501672
101318.898728
101313.223225
101312.437076
101313.223225
101315.718118
101315.718118
101317.270099
101314.340303
101321.978213
101313.223225
101324.795475
101312.031252
101318.898728
101324.194751
101314.340303
101323.235575
101317.270099
101315.718118
101312.437076
101321.978213
101324.194751
101317.270099
101314.340303
101312.437076
101314.340303
101325.000000
101324.194751
101323.235575
101323.235575
101324.795475
101325.000000
101312.031252
101312.031252
101318.898728
101323.235575
101317.270099
101321.978213
101324.795475
101320.501672
101313.223225
101312.437076
101315.718118
101324.194751
101324.795475
101318.898728
101320.501672
101301.200505
101319.454592
101313.803299
101307.966429
101324.624668
101310.814534
101316.744930
101301.945250
101325.000000
101303.387946
101305.437941
101301.200505
101316.744930
101313.803299
101310.814534
101307.966429
101305.437941
101321.762029
101303.387946
101307.966429
101313.803299
101310.814534
101303.387946
101323.522254
101319.454592
101310.814534
101301.200505
101301.945250
101323.522254
101325.000000
101301.945250
101319.454592
101305.437941
101324.624668
101301.200505
101323.522254
101321.762029
101321.762029
101321.762029
101305.437941
101301.945250
101324.624668
101303.387946
101316.744930
101319.454592
101324.624668
101323.522254
101313.803299
101307.966429
101316.744930
101308.935882
101321.256976
101319.428015
101319.428015
101317.442482
101310.412355
101309.438568
101310.412355
101313.502727
101313.502727
101315.425133
101311.796056
101321.256976
101310.412355
101324.746659
101317.442482
101324.002555
101308.935882
101311.796056
101322.814443
101315.425133
101313.502727
101321.256976
101309.438568
101324.002555
101311.796056
101315.425133
101311.796056
101309.438568
101325.000000
101324.002555
101322.814443
101322.814443
101324.746659
101325.000000
101308.935882
101308.935882
101317.442482
101322.814443
101315.425133
101321.256976
101324.746659
101310.412355
101319.428015
101309.438568
101313.502727
101324.002555
101324.746659
101317.442482
101319.428015
101305.345303
101320.420352
101318.182591
101307.151791
101315.753259
101318.182591
101305.960348
101307.151791
101310.932909
101310.932909
101313.285002
101320.420352
101308.844770
101307.151791
101324.690034
101315.753259
101323.779611
101305.345303
101308.844770
101313.285002
101310.932909
101322.325937
101320.420352
101305.960348
101323.779611
101308.844770
101308.844770
101313.285002
101305.960348
101325.000000
101323.779611
101322.325937
101322.325937
101324.690034
101305.345303
101305.345303
101325.000000
101322.325937
101315.753259
101313.285002
101320.420352
101324.690034
101307.151791
101310.932909
101305.960347
101318.182591
101323.779611
101324.690034
101315.753259
101318.182591
101296.438605
101318.345045
101311.563018
101304.558283
101307.976248
101324.549570
101315.093222
101297.332362
101325.000000
101299.063718
101301.523885
101315.093222
101296.438605
101311.563018
101307.976248
101301.523885
101304.558283
101321.114162
101299.063718
101304.558283
101299.063718
101311.563018
101318.345045
101307.976248
101323.226581
101296.438605
101307.976248
101297.332362
101323.226581
101325.000000
101297.332362
101318.345045
101301.523885
101324.549570
101296.438605
101323.226581
101321.114162
101321.114162
101321.114162
101301.523885
101297.332362
101299.063718
101324.549570
101318.345045
101315.093222
101324.549570
101323.226581
101304.558283
101311.563018
101315.093222
101301.200505
101319.454592
101316.744930
101303.387946
101313.803299
101316.744930
101301.945250
101303.387946
101307.966429
101307.966429
101310.814534
101319.454592
101303.387946
101305.437941
101324.624668
101323.522254
101313.803299
101305.437941
101301.200505
101307.966429
101310.814534
101319.454592
101321.762029
101305.437941
101323.522254
101305.437941
101301.945250
101310.814534
101301.945250
101321.762029
101321.762029
101325.000000
101323.522254
101324.624668
101301.200505
101301.200505
101321.762029
101325.000000
101313.803299
101319.454592
101310.814534
101324.624668
101303.387946
101307.966429
101301.945250
101316.744930
101323.522254
101324.624668
101313.803299
101316.744930
101290.984209
101317.074142
101308.996945
101300.654509
101304.725206
101324.463551
101313.201315
101292.048648
101325.000000
101313.201315
101308.996945
101294.110642
101297.040630
101290.984209
101297.040630
101304.725206
101300.654509
101294.110642
101300.654509
101320.372080
101317.074142
101294.110642
101322.887910
101308.996945
101304.725206
101290.984209
101304.725206
101322.887910
101292.048648
101325.000000
101292.048648
101317.074142
101297.040630
101324.463551
101320.372080
101290.984209
101320.372080
101322.887910
101297.040630
101320.372080
101292.048648
101294.110642
101324.463551
101317.074142
101313.201315
101324.463551
101300.654509
101322.887910
101308.996945
101313.201315
101296.438605
101318.345045
101315.093222
101299.063718
101311.563018
101315.093222
101297.332362
101304.558283
101299.063718
101307.976248
101304.558283
101318.345045
101299.063718
101323.226581
101324.549570
101311.563018
101301.523885
101301.523885
101296.438605
101304.558283
101307.976248
101301.523885
101318.345045
101301.523885
101323.226581
101321.114162
101297.332362
101297.332362
101307.976248
101321.114162
101321.114162
101323.226581
101325.000000
101324.549570
101321.114162
101296.438605
101296.438605
101325.000000
101318.345045
101311.563018
101307.976248
101299.063718
101324.549570
101304.558283
101297.332362
101315.093222
101323.226581
101324.549570
101311.563018
101315.093222
101284.807463
101315.634927
101306.091035
101296.233741
101301.043614
101324.366140
101311.058855
101286.065187
101325.000000
101311.058855
101306.091035
101291.963637
101301.043614
101296.233741
101288.501608
101284.807463
101291.963637
101288.501608
101296.233741
101315.634927
101288.501608
101319.531721
101322.504386
101284.807463
101306.091035
101301.043614
101301.043614
101322.504386
101286.065187
101325.000000
101286.065187
101315.634927
101291.963637
101319.531721
101324.366140
101284.807463
101291.963637
101319.531721
101322.504386
101319.531721
101288.501608
101286.065187
101315.634927
101324.366140
101311.058855
101296.233741
101324.366140
101322.504386
101306.091035
101311.058855
101290.984209
101313.201315
101317.074142
101294.110642
101308.996945
101313.201315
101292.048648
101300.654509
101304.725206
101294.110642
101317.074142
101300.654509
101294.110642
101322.887910
101308.996945
101324.463551
101297.040630
101297.040630
101290.984209
101297.040630
101300.654509
101304.725206
101317.074142
101297.040630