# vtk DataFile Version 3.0
Time Step 180, Physical Time = 0.001800s, Residual = 1.65e-03
ASCII
DATASET UNSTRUCTURED_GRID
POINTS 5000 float
0.318712 0.385257 0.000000
-0.318712 0.385257 0.000000
-0.318712 -0.385257 0.000000
0.318712 -0.385257 0.000000
0.093691 0.491144 0.000000
-0.093691 0.491144 0.000000
-0.093691 -0.491144 0.000000
0.093691 -0.491144 0.000000
0.404508 0.293893 0.000000
-0.404508 0.293893 0.000000
-0.404508 -0.293893 0.000000
0.404508 -0.293893 0.000000
0.438153 0.240877 0.000000
-0.438153 0.240877 0.000000
-0.438153 -0.240877 0.000000
0.438153 -0.240877 0.000000
0.500000 0.000000 0.000000
-0.500000 -0.000000 0.000000
0.364484 0.342274 0.000000
-0.364484 0.342274 0.000000
-0.364484 -0.342274 0.000000
0.364484 -0.342274 0.000000
0.496057 0.062667 0.000000
-0.496057 0.062667 0.000000
-0.496057 -0.062667 0.000000
0.496057 -0.062667 0.000000
0.212890 0.452414 0.000000
-0.212890 0.452414 0.000000
-0.212890 -0.452414 0.000000
0.212890 -0.452414 0.000000
0.154508 0.475528 0.000000
-0.154508 0.475528 0.000000
-0.154508 -0.475528 0.000000
0.154508 -0.475528 0.000000
0.267913 0.422164 0.000000
-0.267913 0.422164 0.000000
-0.267913 -0.422164 0.000000
0.267913 -0.422164 0.000000
0.031395 0.499013 0.000000
-0.031395 0.499013 0.000000
-0.031395 -0.499013 0.000000
0.031395 -0.499013 0.000000
0.464888 0.184062 0.000000
-0.464888 0.184062 0.000000
-0.464888 -0.184062 0.000000
0.464888 -0.184062 0.000000
0.484292 0.124345 0.000000
-0.484292 0.124345 0.000000
-0.484292 -0.124345 0.000000
0.484292 -0.124345 0.000000
-0.031454 0.499951 0.000000
0.438977 0.241329 0.000000
-0.268417 0.422957 0.000000
0.365169 0.342917 0.000000
-0.496990 -0.062784 0.000000
0.319311 -0.385981 0.000000
0.405269 0.294445 0.000000
-0.093867 0.492067 0.000000
0.500940 -0.000000 0.000000
-0.213290 0.453264 0.000000
-0.154799 0.476422 0.000000
0.031454 0.499951 0.000000
0.465762 0.184408 0.000000
0.319311 0.385981 0.000000
0.365169 -0.342917 0.000000
0.405269 -0.294445 0.000000
-0.365169 0.342917 0.000000
-0.319311 0.385981 0.000000
0.268417 0.422957 0.000000
0.213290 0.453264 0.000000
-0.319311 -0.385981 0.000000
0.154799 -0.476422 0.000000
-0.485202 -0.124579 0.000000
0.154799 0.476422 0.000000
0.268417 -0.422957 0.000000
0.093867 0.492067 0.000000
-0.031454 -0.499951 0.000000
-0.500940 0.000000 0.000000
0.438977 -0.241329 0.000000
-0.438977 -0.241329 0.000000
0.093867 -0.492067 0.000000
-0.485202 0.124579 0.000000
0.485202 0.124579 0.000000
-0.496990 0.062784 0.000000
0.213290 -0.453264 0.000000
0.031454 -0.499951 0.000000
0.496990 -0.062784 0.000000
0.465762 -0.184408 0.000000
-0.465762 -0.184408 0.000000
-0.213290 -0.453264 0.000000
-0.093867 -0.492067 0.000000
-0.405269 -0.294445 0.000000
0.496990 0.062784 0.000000
0.485202 -0.124579 0.000000
-0.154799 -0.476422 0.000000
-0.365169 -0.342917 0.000000
-0.465762 0.184408 0.000000
-0.438977 0.241329 0.000000
-0.405269 0.294445 0.000000
-0.268417 -0.422957 0.000000
-0.031523 0.501039 0.000000
0.439932 0.241854 0.000000
-0.269001 0.423877 0.000000
0.365964 0.343663 0.000000
-0.498071 -0.062921 0.000000
0.320005 -0.386820 0.000000
0.406150 0.295085 0.000000
-0.094071 0.493137 0.000000
0.502029 -0.000000 0.000000
-0.213754 0.454250 0.000000
-0.155136 0.477458 0.000000
0.031523 0.501039 0.000000
0.466775 0.184809 0.000000
0.365964 -0.343663 0.000000
0.406150 -0.295085 0.000000
0.320005 0.386820 0.000000
-0.365964 0.343663 0.000000
-0.320005 0.386820 0.000000
0.269001 0.423877 0.000000
0.213754 0.454250 0.000000
-0.320005 -0.386820 0.000000
0.155136 -0.477458 0.000000
-0.486257 -0.124850 0.000000
0.155136 0.477458 0.000000
0.269001 -0.423877 0.000000
0.094071 0.493137 0.000000
-0.031523 -0.501039 0.000000
-0.502029 0.000000 0.000000
0.439932 -0.241854 0.000000
-0.439932 -0.241854 0.000000
0.094071 -0.493137 0.000000
-0.486257 0.124850 0.000000
0.486257 0.124850 0.000000
-0.498071 0.062921 0.000000
0.213754 -0.454250 0.000000
0.031523 -0.501039 0.000000
0.466775 -0.184809 0.000000
0.498071 -0.062921 0.000000
-0.466775 -0.184809 0.000000
-0.213754 -0.454250 0.000000
-0.094071 -0.493137 0.000000
-0.406150 -0.295085 0.000000
0.498071 0.062921 0.000000
-0.155136 -0.477458 0.000000
0.486257 -0.124850 0.000000
-0.365964 -0.343663 0.000000
-0.466775 0.184809 0.000000
-0.439932 0.241854 0.000000
-0.406150 0.295085 0.000000
-0.269001 -0.423877 0.000000
-0.031604 0.502329 0.000000
0.441064 0.242477 0.000000
-0.269693 0.424969 0.000000
0.366906 0.344547 0.000000
-0.499353 -0.063083 0.000000
0.320829 -0.387816 0.000000
0.407196 0.295845 0.000000
-0.094313 0.494407 0.000000
0.503322 -0.000000 0.000000
-0.214304 0.455419 0.000000
-0.155535 0.478688 0.000000
0.031604 0.502329 0.000000
0.467977 0.185285 0.000000
0.366906 -0.344547 0.000000
0.407196 -0.295845 0.000000
0.320829 0.387816 0.000000
0.269693 0.424969 0.000000
-0.366906 0.344547 0.000000
-0.320829 0.387816 0.000000
0.214304 0.455419 0.000000
-0.320829 -0.387816 0.000000
0.155535 -0.478688 0.000000
-0.487509 -0.125171 0.000000
0.155535 0.478688 0.000000
0.269693 -0.424969 0.000000
-0.031604 -0.502329 0.000000
0.094313 0.494407 0.000000
-0.503322 0.000000 0.000000
0.441064 -0.242477 0.000000
-0.441064 -0.242477 0.000000
-0.487509 0.125171 0.000000
0.094313 -0.494407 0.000000
0.487509 0.125171 0.000000
-0.499353 0.063083 0.000000
0.214304 -0.455419 0.000000
0.031604 -0.502329 0.000000
0.467977 -0.185285 0.000000
0.499353 -0.063083 0.000000
-0.467977 -0.185285 0.000000
-0.214304 -0.455419 0.000000
-0.094313 -0.494407 0.000000
-0.407196 -0.295845 0.000000
0.499353 0.063083 0.000000
-0.155535 -0.478688 0.000000
0.487509 -0.125171 0.000000
-0.467977 0.185285 0.000000
-0.366906 -0.344547 0.000000
-0.441064 0.242477 0.000000
-0.407196 0.295845 0.000000
-0.269693 -0.424969 0.000000
-0.031700 0.503862 0.000000
0.442411 0.243217 0.000000
-0.270517 0.426266 0.000000
0.368026 0.345599 0.000000
-0.500877 -0.063276 0.000000
0.321809 -0.389000 0.000000
0.408439 0.296748 0.000000
-0.094601 0.495916 0.000000
0.504858 -0.000000 0.000000
-0.214958 0.456810 0.000000
-0.156010 0.480149 0.000000
0.031700 0.503862 0.000000
0.469405 0.185851 0.000000
0.368026 -0.345599 0.000000
0.408439 -0.296748 0.000000
0.321809 0.389000 0.000000
0.270517 0.426266 0.000000
-0.368026 0.345599 0.000000
-0.321809 0.389000 0.000000
0.214958 0.456810 0.000000
-0.321809 -0.389000 0.000000
0.156010 -0.480149 0.000000
0.270517 -0.426266 0.000000
-0.488997 -0.125553 0.000000
0.156010 0.480149 0.000000
-0.031700 -0.503862 0.000000
0.094601 0.495916 0.000000
-0.504858 0.000000 0.000000
0.442411 -0.243217 0.000000
-0.442411 -0.243217 0.000000
-0.488997 0.125553 0.000000
0.094601 -0.495916 0.000000
0.488997 0.125553 0.000000
-0.500877 0.063276 0.000000
0.214958 -0.456810 0.000000
0.031700 -0.503862 0.000000
0.469405 -0.185851 0.000000
0.500877 -0.063276 0.000000
-0.469405 -0.185851 0.000000
-0.214958 -0.456810 0.000000
-0.094601 -0.495916 0.000000
-0.408439 -0.296748 0.000000
-0.469405 0.185851 0.000000
0.500877 0.063276 0.000000
-0.156010 -0.480149 0.000000
0.488997 -0.125553 0.000000
-0.368026 -0.345599 0.000000
-0.442411 0.243217 0.000000
-0.408439 0.296748 0.000000
-0.270517 -0.426266 0.000000
-0.031815 0.505686 0.000000
0.444012 0.244098 0.000000
-0.271496 0.427809 0.000000
0.369358 0.346850 0.000000
-0.502691 -0.063505 0.000000
0.322974 -0.390408 0.000000
0.409918 0.297823 0.000000
-0.094943 0.497711 0.000000
0.506686 -0.000000 0.000000
-0.215736 0.458463 0.000000
-0.156575 0.481887 0.000000
0.031815 0.505686 0.000000
0.369358 -0.346850 0.000000
0.409918 -0.297823 0.000000
0.471105 0.186524 0.000000
0.322974 0.390408 0.000000
0.271496 0.427809 0.000000
-0.369358 0.346850 0.000000
-0.322974 0.390408 0.000000
0.215736 0.458463 0.000000
0.156575 -0.481887 0.000000
-0.322974 -0.390408 0.000000
0.271496 -0.427809 0.000000
-0.490768 -0.126008 0.000000
0.156575 0.481887 0.000000
-0.031815 -0.505686 0.000000
0.094943 0.497711 0.000000
-0.506686 0.000000 0.000000
0.444012 -0.244098 0.000000
-0.490768 0.126008 0.000000
-0.444012 -0.244098 0.000000
0.094943 -0.497711 0.000000
0.490768 0.126008 0.000000
-0.502691 0.063505 0.000000
0.215736 -0.458463 0.000000
0.031815 -0.505686 0.000000
0.471105 -0.186524 0.000000
-0.471105 -0.186524 0.000000
0.502691 -0.063505 0.000000
-0.215736 -0.458463 0.000000
-0.094943 -0.497711 0.000000
-0.409918 -0.297823 0.000000
-0.471105 0.186524 0.000000
0.502691 0.063505 0.000000
-0.156575 -0.481887 0.000000
0.490768 -0.126008 0.000000
-0.369358 -0.346850 0.000000
-0.444012 0.244098 0.000000
-0.409918 0.297823 0.000000
-0.271496 -0.427809 0.000000
-0.031952 0.507855 0.000000
0.445917 0.245145 0.000000
-0.272661 0.429644 0.000000
0.370943 0.348338 0.000000
-0.504847 -0.063777 0.000000
0.324359 -0.392083 0.000000
0.411676 0.299100 0.000000
-0.095351 0.499846 0.000000
0.508859 -0.000000 0.000000
-0.216662 0.460430 0.000000
-0.157246 0.483954 0.000000
0.031952 0.507855 0.000000
0.370943 -0.348338 0.000000
0.411676 -0.299100 0.000000
0.324359 0.392083 0.000000
0.473126 0.187324 0.000000
0.272661 0.429644 0.000000
-0.370943 0.348338 0.000000
-0.324359 0.392083 0.000000
0.216662 0.460430 0.000000
0.157246 -0.483954 0.000000
-0.324359 -0.392083 0.000000
0.272661 -0.429644 0.000000
0.157246 0.483954 0.000000
-0.492873 -0.126548 0.000000
-0.031952 -0.507855 0.000000
0.095351 0.499846 0.000000
0.445917 -0.245145 0.000000
-0.508859 0.000000 0.000000
-0.492873 0.126548 0.000000
-0.445917 -0.245145 0.000000
0.095351 -0.499846 0.000000
-0.504847 0.063777 0.000000
0.216662 -0.460430 0.000000
0.492873 0.126548 0.000000
0.031952 -0.507855 0.000000
0.473126 -0.187324 0.000000
-0.473126 -0.187324 0.000000
0.504847 -0.063777 0.000000
-0.216662 -0.460430 0.000000
-0.095351 -0.499846 0.000000
-0.473126 0.187324 0.000000
-0.411676 -0.299100 0.000000
-0.157246 -0.483954 0.000000
0.504847 0.063777 0.000000
0.492873 -0.126548 0.000000
-0.370943 -0.348338 0.000000
-0.445917 0.245145 0.000000
-0.411676 0.299100 0.000000
-0.272661 -0.429644 0.000000
0.318712 0.385257 0.100000
-0.318712 0.385257 0.100000
[...]
POINT_DATA 5000
SCALARS pressure float 1
LOOKUP_TABLE default
101811.338139
101811.338139
101811.338139
101811.338139
101811.338139
101811.338139
101811.338139
101811.338139
101811.338139
101811.338139
101811.338139
101811.338139
101811.338139
101811.338139
101811.338139
101811.338139
101325.000000
101325.000000
101325.000000
101325.000000
101325.000000
101325.000000
101325.000000
101325.000000
101325.000000
101325.000000
101325.000000
101325.000000
101325.000000
101325.000000
101325.000000
101325.000000
101325.000000
101325.000000
101325.000000
101325.000000
101325.000000
101325.000000
101325.000000
101325.000000
101325.000000
101325.000000
101325.000000
101325.000000
101325.000000
101325.000000
101325.000000
101325.000000
101325.000000
101325.000000
101323.547565
101324.661575
101323.960476
101324.316688
101324.977094
101324.134290
101324.496210
101323.593015
101325.000000
101323.806167
101323.681060
101323.547565
101324.802393
101324.134290
101324.316688
101324.496210
101324.316688
101324.134290
101323.960476
101323.806167
101324.134290
101323.681060
101324.909816
101323.681060
101323.960476
101323.593015
101323.547565
101325.000000
101324.661575
101324.661575
101323.593015
101324.909816
101324.909816
101324.977094
101323.806167
101323.547565
101324.977094
101324.802393
101324.802393
101323.806167
101323.593015
101324.496210
101324.977094
101324.909816
101323.681060
101324.316688
101324.802393
101324.661575
101324.496210
101323.960476
101321.873556
101324.271522
101322.762368
101323.529135
101324.950694
101323.136512
101323.915565
101321.971390
101325.000000
101322.430211
101322.160912
101321.873556
101324.574641
101323.529135
101323.915565
101323.136512
101323.529135
101323.136512
101322.762368
101322.430211
101323.136512
101322.160912
101324.805875
101322.160912
101322.762368
101321.971390
101321.873556
101325.000000
101324.271522
101324.271522
101321.971390
101324.805875
101324.805875
101324.950694
101322.430211
101321.873556
101324.574641
101324.950694
101324.574641
101322.430211
101321.971390
101323.915565
101324.950694
101322.160911
101324.805875
101323.529135
101324.574641
101324.271522
101323.915565
101322.762368
101319.901549
101323.812034
101321.350980
101322.601385
101324.919594
101321.961116
101323.231556
101320.061092
101325.000000
101320.809314
101320.370154
101319.901549
101324.306345
101322.601385
101323.231556
101321.961116
101321.350980
101322.601385
101321.961116
101320.809314
101321.961116
101320.370154
101324.683430
101320.370154
101321.350980
101319.901549
101320.061092
101325.000000
101323.812034
101323.812034
101324.683430
101320.061092
101324.683430
101324.919594
101320.809314
101319.901549
101324.306345
101324.919594
101324.306345
101320.809314
101320.061092
101323.231556
101324.919594
101320.370154
101324.683430
101324.306345
101322.601385
101323.812034
101323.231556
101321.350980
101317.577132
101323.270433
101319.687368
101321.507840
101324.882937
101320.575669
101322.425311
101317.809412
101325.000000
101318.898754
101318.259377
101317.577132
101323.990103
101321.507840
101322.425311
101320.575669
101319.687368
101321.507840
101320.575669
101318.898754
101320.575669
101318.259377
101319.687368
101324.539103
101318.259377
101317.577132
101317.809412
101325.000000
101323.270433
101323.270433
101324.539103
101317.809412
101324.539103
101324.882937
101318.898754
101317.577132
101323.990103
101324.882937
101323.990103
101318.898754
101317.809412
101322.425311
101323.990103
101324.882937
101318.259377
101324.539103
101321.507840
101323.270433
101322.425311
101319.687368
101314.839890
101322.632641
101317.728293
101320.220079
101324.839769
101318.944162
101321.475874
101315.157825
101325.000000
101316.648870
101315.773718
101314.839890
101320.220079
101321.475874
101323.617696
101318.944162
101317.728293
101320.220079
101318.944162
101316.648870
101315.773718
101318.944162
101317.728293
101324.369144
101315.773718
101314.839890
101315.157825
101325.000000
101322.632641
101324.369144
101322.632641
101315.157825
101324.369144
101324.839769
101316.648870
101314.839890
101323.617696
101323.617696
101324.839769
101316.648870
101315.157825
101321.475874
101323.617696
101324.839769
101315.773718
101324.369144
101320.220079
101322.632641
101321.475874
101317.728293
101311.623104
101321.883113
101315.426002
101318.706711
101324.789038
101317.026826
101320.360103
101312.041700
101325.000000
101314.004825
101312.852591
101311.623104
101318.706711
101320.360103
101317.026826
101323.180045
101315.426002
101318.706711
101317.026826
101314.004825
101312.852591
101317.026826
101315.426002
101312.852591
101324.169409
101311.623104
101312.041700
101321.883113
101325.000000
101324.169409
101321.883113
101312.041700
101324.789038
101314.004825
101324.169409
101311.623104
101323.180045
101323.180045
101324.789038
101314.004825
101312.041700
101323.180045
101320.360103
101312.852591
101324.789038
101324.169409
101318.706711
101321.883113
101320.360103
101315.426002
101811.338139
101811.338139
101811.338139
101811.338139
101811.338139
101811.338139
101811.338139
101811.338139
101811.338139
101811.338139
101811.338139
101811.338139
101811.338139
101811.338139
101811.338139
101811.338139
101325.000000
101325.000000
101325.000000
101325.000000
101325.000000
101325.000000
101325.000000
101325.000000
101325.000000
101325.000000
101325.000000
101325.000000
101325.000000
101325.000000
101325.000000
101325.000000
101325.000000
101325.000000
101325.000000
101325.000000
101325.000000
101325.000000
101325.000000
101325.000000
101325.000000
101325.000000
101325.000000
101325.000000
101325.000000
101325.000000
101325.000000
101325.000000
101325.000000
101325.000000
101323.547565
101324.661575
101323.593015
101324.496210
101324.496210
101323.681060
101324.316688
101323.681060
101323.960476
101323.806167
101323.960476
101324.134290
101324.661575
101323.547565
101324.977094
101323.681060
101324.316688
101324.802393
101324.909816
101323.806167
101324.134290
101323.593015
101324.134290
101323.960476
101324.909816
101324.661575
101325.000000
101323.806167
101324.909816
101323.593015
101323.806167
101324.802393
101324.802393
101325.000000
101324.977094
101324.316688
101323.547565
101323.547565
101324.134290
101324.977094
101324.661575
101324.802393
101324.496210
101324.977094
101323.681060
101323.593015
101323.960476
101324.909816
101324.316688
101324.496210
101307.853046
101321.004670
101316.933051
101312.727729
101324.729582
101314.779719
101319.052424
101308.389617
101325.000000
101310.906016
101309.429044
101307.853046
101316.933051
101319.052424
101314.779719
101322.667121
101312.727729
101310.906016
101316.933051
101314.779719
101309.429044
101314.779719
101312.727729
101309.429044
101323.935321
101307.853046
101308.389617
101321.004670
101325.000000
101323.935321
101321.004670
101308.389617
101310.906016
101324.729582
101323.935321
101307.853046
101322.667121
101322.667121
101324.729582
101310.906016
101322.667121
101308.389617
101319.052424
101309.429044
101324.729582
101323.935321
101316.933051
101321.004670
101319.052424
101312.727729
101321.873556
101324.271522
101321.971390
101323.915565
101323.915565
101323.529135
101322.160912
101322.160912
101322.762368
101322.430211
101322.762368
101323.136512
101324.271522
101321.873556
101324.950694
101322.160912
101323.529135
101324.574641
101324.805875
101322.430211
101323.136512
101321.971390
101323.136512
101322.762368
101324.805875
101324.271522
101322.430211
101325.000000
101324.805875
101321.971390
101322.430211
101324.574641
101324.574641
101324.950694
101325.000000
101323.529135
101321.873556
101321.873556
101323.136512
101324.950694
101324.271522
101324.574641
101323.915565
101324.950694
101322.160911
101321.971390
101322.762368
101324.805875
101323.529135
101323.915565
101319.901549
101323.812034
101320.061092
101323.231556
101323.231556
101322.601385
101320.370154
101320.370154
101321.350980
101320.809314
101321.350980
101321.961116
101323.812034
101324.919594
101319.901549
101320.370154
101322.601385
101324.683430
101324.306345
101320.809314
101321.961116
101320.061092
101321.961116
101321.350980
101324.683430
101323.812034
101320.809314
101325.000000
101324.683430
101320.061092
101320.809314
101324.306345
101324.306345
101324.919594
101325.000000
101322.601385
101319.901549
101319.901549
101321.961116
101324.919594
101323.812034
101324.306345
101323.231556
101324.919594
101320.370154
101320.061092
101321.350980
101324.683430
101322.601385
101323.231556
101303.444933
101319.977556
101314.859212
101309.572792
101324.660064
101312.152304
101317.523430
101304.119444
101325.000000
101307.282755
101305.426085
101303.444933
101317.523430
101314.859212
101312.152304
101322.067388
101309.572792
101307.282755
101314.859212
101312.152304
101305.426085
101309.572792
101312.152304
101305.426085
101323.661614
101303.444933
101319.977556
101304.119444
101325.000000
101323.661614
101319.977556
101304.119444
101307.282755
101324.660064
101323.661614
101303.444933
101322.067388
101322.067388
101324.660064
101307.282755
101322.067388
101304.119444
101317.523430
101305.426085
101324.660064
101319.977556
101323.661614
101314.859212
101309.572792
101317.523430
101317.577132
101323.270433
101317.809412
101322.425311
101322.425311
101321.507840
101318.259377
101318.259377
101319.687368
101319.687368
101318.898754
101320.575669
101323.270433
101324.882937
101317.577132
101318.259377
101321.507840
101324.539103
101323.990103
101318.898754
101320.575669
101317.809412
101320.575669
101319.687368
101324.539103
101323.270433
101318.898754
101325.000000
101324.539103
101317.809412
101318.898754
101323.990103
101323.990103
101324.882937
101325.000000
101321.507840
101317.577132
101317.577132
101320.575669
101324.882937
101323.270433
101323.990103
101322.425311
101324.882937
101318.259377
101317.809412
101319.687368
101324.539103
101321.507840
101322.425311
101314.839890
101322.632641
101321.475874
101315.157825
101321.475874
101320.220079
101315.773718
101315.773718
101317.728293
101317.728293
101316.648870
101318.944162
101322.632641
101324.839769
101315.773718
101314.839890
101320.220079
101324.369144
101316.648870
101323.617696
101318.944162
101315.157825
101317.728293
101318.944162
101324.369144
101322.632641
101316.648870
101325.000000
101315.157825
101324.369144
101316.648870
101323.617696
101323.617696
101324.839769
101325.000000
101320.220079
101314.839890
101314.839890
101318.944162
101324.839769
101322.632641
101323.617696
101321.475874
101315.773718
101315.157825
101324.839769
101317.728293
101324.369144
101320.220079
101321.475874
101298.300188
101318.778803
101312.438817
101305.890639
101324.578928
101309.085827
101315.738929
101299.135691
101325.000000
101303.054018
101300.754201
101298.300188
101315.738929
101312.438817
101309.085827
101305.890639
101321.367435
101303.054018
101312.438817
101309.085827
101300.754200
101305.890639
101309.085827
101300.754200
101323.342170
101298.300188
101318.778803
101299.135691
101325.000000
101323.342170
101299.135691
101318.778803
101303.054018
101324.578928
101323.342170
101298.300188
101321.367435
101321.367435
101321.367435
101303.054018
101324.578928
101299.135691
101300.754200
101315.738929
101324.578928
101318.778803
101323.342170
101312.438817
101305.890639
101315.738929
101311.623104
101321.883113
101320.360103
101312.041700
101320.360103
101318.706711
101312.852591
101312.852591
101315.426002
101315.426002
101314.004825
101317.026826
101321.883113
101324.789038
101312.852591
101311.623104
101318.706711
101324.169409
101314.004825
101323.180045
101317.026826
101315.426002
101312.041700
101317.026826
101324.169409
101321.883113
101314.004825
101325.000000
101312.041700
101324.169409
101314.004825
101323.180045
101323.180045
101324.789038
101325.000000
101318.706711
101311.623104
101311.623104
101317.026826
101323.180045
101321.883113
101324.789038
101320.360103
101312.852591
101312.041700
101315.426002
101324.789038
101324.169409
101318.706711
101320.360103
101307.853046
101321.004670
101319.052424
101319.052424
101316.933051
101308.389617
101309.429044
101309.429044
101312.727729
101312.727729
101310.906016
101314.779719
101321.004670
101324.729582
101309.429044
101307.853046
101316.933051
101323.935321
101310.906016
101322.667121
101314.779719
101312.727729
101308.389617
101323.935321
101321.004670
101314.779719
101310.906016
101308.389617
101325.000000
101310.906016
101323.935321
101322.667121
101322.667121
101324.729582
101325.000000
101307.853046
101316.933051
101307.853046
101314.779719
101322.667121
101321.004670
101324.729582
101319.052424
101309.429044
101308.389617
101312.727729
101324.729582
101323.935321
101316.933051
101319.052424
101292.332367
101317.388270
101309.631198
101301.619401
101324.484812
101305.528763
101313.668936
101293.354618
101325.000000
101298.148752
101295.334889
101292.332367
101313.668936
101309.631198
101305.528763
101301.619401
101298.148752
101320.555500
101295.334889
101309.631198
101305.528763
101301.619401
101295.334889
101305.528763
101322.971619
101317.388270
101292.332367
101293.354618
101325.000000
101322.971619
101293.354618
101317.388270
101298.148752
101324.484812
101322.971619
101292.332367
101320.555500
101320.555500
101320.555500
101298.148752
101324.484812
101293.354618
101295.334889
101313.668936
101317.388270
101324.484812
101322.971619
101309.631198
101301.619401
101313.668936
101303.444933
101319.977556
101317.523430
101317.523430
101314.859212
101305.426085
101304.119444
101305.426085
101309.572792
101309.572792
101312.152304
101307.282755
101319.977556
101305.426085
101324.660064
101303.444933
101314.859212
101323.661614
101307.282755
101322.067388
101312.152304
101309.572792
101304.119444
101319.977556
101323.661614
101312.152304
101307.282755
101304.119444
101307.282755
101325.000000
101323.661614
101322.067388
101322.067388
101324.660064
101325.000000
101303.444933
101303.444933
101314.859212
101322.067388
101312.152304
101319.977556
101324.660064
101317.523430
101305.426085
101304.119444
101309.572792
101323.661614
101324.660064
101314.859212
101317.523430
101285.443390
101315.783102
101306.390213
101296.688881
101324.376169
101301.422653
101311.279432
101286.681214
101325.000000
101289.079086
101292.486339
101285.443390
101311.279432
101306.390213
101301.422653
101296.688881
101292.486339
101319.618240
101289.079086
101296.688881
101306.390213
101301.422653
101289.079086
101322.543872
101315.783102
101301.422653
101285.443389
101286.681214
101322.543872
101325.000000
101286.681214
101315.783102
101292.486339
101324.376169
101285.443389
101322.543872
101319.618240
101319.618240
101319.618240
101292.486338
101286.681214
101324.376169
101289.079086
101311.279432
101315.783102
101324.376169
101322.543872
101306.390213
101296.688881
101311.279432
101298.300188
101318.778803
101315.738929
101315.738929
101312.438817
101300.754201
101299.135691
101300.754201
101305.890639
101305.890639
101309.085827
101303.054018
101318.778803
101300.754201
101324.578928
101312.438817
101323.342170
101298.300188
101303.054018
101321.367435
101309.085827
101305.890639
101318.778803
101299.135691
101323.342170
101303.054018
101309.085827
101303.054018
101299.135691
101325.000000
101323.342170
101321.367435
101321.367435
101324.578928
101325.000000
101298.300188
101298.300188
101312.438817
101321.367435
101309.085827
101318.778803
101324.578928
101300.754200
101315.738929
101299.135691
101305.890639
101323.342170
101324.578928
101312.438817
101315.738929
101292.332367
101317.388270
101313.668936
101295.334889
101309.631198
101313.668936
101293.354618
101295.334889
101301.619401
101301.619401
101305.528763
101317.388270
101298.148752
101295.334889
101324.484812
101309.631198
101322.971619
101292.332367
101298.148752
101305.528763
101301.619401
101320.555500
101317.388270
101293.354618
101322.971619
101298.148752
101298.148752
101305.528763
101293.354618
101325.000000
101322.971619
101320.555500
101320.555500
101324.484812
101292.332367
101292.332367
101325.000000
101320.555500
101309.631198
101305.528763
101317.388270
101324.484812
101295.334889
101301.619401
101293.354618
101313.668936
101322.971619
101324.484812
101309.631198
101313.668936
101277.528742
101313.938947
101302.666691
101291.024277
101296.705201
101324.251350
101308.534165
101279.014236
101325.000000
101281.891884
101285.980873
101308.534165
101277.528742
101302.666691
101296.705201
101285.980873
101291.024277
101318.541436
101281.891884
101291.024277
101281.891884
101302.666691
101313.938947
101296.705201
101322.052440
101277.528742
101296.705201
101279.014235
101322.052440
101325.000000
101279.014235
101313.938947
101285.980873
101324.251350
101277.528742
101322.052440
101318.541436
101318.541436
101318.541436
101285.980873
101279.014235
101281.891883
101324.251350
101313.938947
101308.534165
101324.251350
101322.052440
101291.024277
101302.666691
101308.534165
101285.443390
101315.783102
101311.279432
101289.079086
101306.390213
101311.279432
101286.681214
101289.079086
101296.688881
101296.688881
101301.422653
101315.783102
101289.079086
101292.486339
101324.376169
101322.543872
101306.390213
101292.486339
101285.443389
101296.688881
101301.422653
101315.783102
101319.618240
101292.486339
101322.543872
101292.486339
101286.681214
101301.422653
101286.681214
101319.618240
101319.618240
101325.000000
101322.543872
101324.376169
101285.443389
101285.443389
101319.618240
101325.000000
101306.390213
101315.783102
101301.422653
101324.376169
101289.079086
101296.688881
101286.681214
101311.279432
101322.543872
101324.376169
101306.390213
101311.279432
101268.463112
101311.826608
101298.401679
101284.535902
101291.301718
101324.108380
101305.389669
101270.232292
101325.000000
101305.389669
101298.401679
101273.659487
101278.529354
101268.463112
101278.529354
101291.301717
101284.535902
101273.659487
101284.535902
101317.308038
101311.826608
101273.659487
101321.489542
101298.401679
101291.301717
101268.463112
101291.301717
101321.489542
101270.232292
101325.000000
101270.232292
101311.826608
101278.529354
101324.108380
101317.308038
101268.463112
101317.308038
101321.489542
101278.529354
101317.308038
101270.232292
101273.659487
101324.108380
101311.826608
101305.389669
101324.108380
101284.535902
101321.489542
101298.401678
101305.389669
101277.528742
101313.938947
101308.534165
101281.891884
101302.666691
101308.534165
101279.014236
101291.024277
101281.891884
101296.705201
101291.024277
101313.938947
101281.891884
101322.052440
101324.251350
101302.666691
101285.980873
101285.980873
101277.528742
101291.024277
101296.705201
101285.980873
101313.938947
101285.980873
101322.052440
101318.541436
101279.014235
101279.014235
101296.705201
101318.541436
101318.541436
101322.052440
101325.000000
101324.251350
101318.541436
101277.528742
101277.528742
101325.000000
101313.938947
101302.666691
101296.705201
101281.891883
101324.251350
101291.024277
101279.014235
101308.534165
101322.052440
101324.251350
101302.666691
101308.534165
101258.196880
101309.434522
101293.571831
101277.188242
101285.182626
101323.946475
101301.828733
101260.287315
101325.000000
101301.828733
101293.571831
101270.090997
101285.182625
101277.188242
101264.336836
101258.196879
101270.090997
101264.336836
101277.188242
101309.434522
101264.336836
101315.911296
101320.852096
101258.196879
101293.571831
101285.182625
101285.182625
101320.852096
101260.287315
101325.000000
101260.287315
101309.434521
101270.090997
101315.911296
101323.946475
101258.196879
101270.090997
101315.911296
101320.852096
101315.911296
101264.336836
101260.287315
101309.434521
101323.946475
101301.828733
101277.188242
101323.946475
101320.852096
101293.571831
101301.828733
101268.463112
101305.389669
101311.826608
101273.659487
101298.401679
101305.389669
101270.232292
101284.535902
101291.301717
101273.659487
101311.826608
101284.535902
101273.659487
101321.489542
101298.401679
101324.108380
101278.529354
101278.529354
101268.463112
101278.529354
101284.535902
101291.301717
101311.826608
101278.529354