# vtk DataFile Version 3.0
Time Step 76, Physical Time = 0.000760s, Residual = 4.68e-03
ASCII
DATASET UNSTRUCTURED_GRID
POINTS 5000 float
0.318712 0.385257 0.000000
-0.318712 0.385257 0.000000
-0.318712 -0.385257 0.000000
0.318712 -0.385257 0.000000
0.093691 0.491144 0.000000
-0.093691 0.491144 0.000000
-0.093691 -0.491144 0.000000
0.093691 -0.491144 0.000000
0.404508 0.293893 0.000000
-0.404508 0.293893 0.000000
-0.404508 -0.293893 0.000000
0.404508 -0.293893 0.000000
0.438153 0.240877 0.000000
-0.438153 0.240877 0.000000
-0.438153 -0.240877 0.000000
0.438153 -0.240877 0.000000
0.500000 0.000000 0.000000
-0.500000 -0.000000 0.000000
0.364484 0.342274 0.000000
-0.364484 0.342274 0.000000
-0.364484 -0.342274 0.000000
0.364484 -0.342274 0.000000
0.496057 0.062667 0.000000
-0.496057 0.062667 0.000000
-0.496057 -0.062667 0.000000
0.496057 -0.062667 0.000000
0.212890 0.452414 0.000000
-0.212890 0.452414 0.000000
-0.212890 -0.452414 0.000000
0.212890 -0.452414 0.000000
0.154508 0.475528 0.000000
-0.154508 0.475528 0.000000
-0.154508 -0.475528 0.000000
0.154508 -0.475528 0.000000
0.267913 0.422164 0.000000
-0.267913 0.422164 0.000000
-0.267913 -0.422164 0.000000
0.267913 -0.422164 0.000000
0.031395 0.499013 0.000000
-0.031395 0.499013 0.000000
-0.031395 -0.499013 0.000000
0.031395 -0.499013 0.000000
0.464888 0.184062 0.000000
-0.464888 0.184062 0.000000
-0.464888 -0.184062 0.000000
0.464888 -0.184062 0.000000
0.484292 0.124345 0.000000
-0.484292 0.124345 0.000000
-0.484292 -0.124345 0.000000
0.484292 -0.124345 0.000000
-0.031454 0.499951 0.000000
0.438977 0.241329 0.000000
-0.268417 0.422957 0.000000
0.365169 0.342917 0.000000
-0.496990 -0.062784 0.000000
0.319311 -0.385981 0.000000
0.405269 0.294445 0.000000
-0.093867 0.492067 0.000000
0.500940 -0.000000 0.000000
-0.213290 0.453264 0.000000
-0.154799 0.476422 0.000000
0.031454 0.499951 0.000000
0.465762 0.184408 0.000000
0.319311 0.385981 0.000000
0.365169 -0.342917 0.000000
0.405269 -0.294445 0.000000
-0.365169 0.342917 0.000000
-0.319311 0.385981 0.000000
0.268417 0.422957 0.000000
0.213290 0.453264 0.000000
-0.319311 -0.385981 0.000000
0.154799 -0.476422 0.000000
-0.485202 -0.124579 0.000000
0.154799 0.476422 0.000000
0.268417 -0.422957 0.000000
0.093867 0.492067 0.000000
-0.031454 -0.499951 0.000000
-0.500940 0.000000 0.000000
0.438977 -0.241329 0.000000
-0.438977 -0.241329 0.000000
0.093867 -0.492067 0.000000
-0.485202 0.124579 0.000000
0.485202 0.124579 0.000000
-0.496990 0.062784 0.000000
0.213290 -0.453264 0.000000
0.031454 -0.499951 0.000000
0.496990 -0.062784 0.000000
0.465762 -0.184408 0.000000
-0.465762 -0.184408 0.000000
-0.213290 -0.453264 0.000000
-0.093867 -0.492067 0.000000
-0.405269 -0.294445 0.000000
0.496990 0.062784 0.000000
0.485202 -0.124579 0.000000
-0.154799 -0.476422 0.000000
-0.365169 -0.342917 0.000000
-0.465762 0.184408 0.000000
-0.438977 0.241329 0.000000
-0.405269 0.294445 0.000000
-0.268417 -0.422957 0.000000
-0.031523 0.501039 0.000000
0.439932 0.241854 0.000000
-0.269001 0.423877 0.000000
0.365964 0.343663 0.000000
-0.498071 -0.062921 0.000000
0.320005 -0.386820 0.000000
0.406150 0.295085 0.000000
-0.094071 0.493137 0.000000
0.502029 -0.000000 0.000000
-0.213754 0.454250 0.000000
-0.155136 0.477458 0.000000
0.031523 0.501039 0.000000
0.466775 0.184809 0.000000
0.365964 -0.343663 0.000000
0.406150 -0.295085 0.000000
0.320005 0.386820 0.000000
-0.365964 0.343663 0.000000
-0.320005 0.386820 0.000000
0.269001 0.423877 0.000000
0.213754 0.454250 0.000000
-0.320005 -0.386820 0.000000
0.155136 -0.477458 0.000000
-0.486257 -0.124850 0.000000
0.155136 0.477458 0.000000
0.269001 -0.423877 0.000000
0.094071 0.493137 0.000000
-0.031523 -0.501039 0.000000
-0.502029 0.000000 0.000000
0.439932 -0.241854 0.000000
-0.439932 -0.241854 0.000000
0.094071 -0.493137 0.000000
-0.486257 0.124850 0.000000
0.486257 0.124850 0.000000
-0.498071 0.062921 0.000000
0.213754 -0.454250 0.000000
0.031523 -0.501039 0.000000
0.466775 -0.184809 0.000000
0.498071 -0.062921 0.000000
-0.466775 -0.184809 0.000000
-0.213754 -0.454250 0.000000
-0.094071 -0.493137 0.000000
-0.406150 -0.295085 0.000000
0.498071 0.062921 0.000000
-0.155136 -0.477458 0.000000
0.486257 -0.124850 0.000000
-0.365964 -0.343663 0.000000
-0.466775 0.184809 0.000000
-0.439932 0.241854 0.000000
-0.406150 0.295085 0.000000
-0.269001 -0.423877 0.000000
-0.031604 0.502329 0.000000
0.441064 0.242477 0.000000
-0.269693 0.424969 0.000000
0.366906 0.344547 0.000000
-0.499353 -0.063083 0.000000
0.320829 -0.387816 0.000000
0.407196 0.295845 0.000000
-0.094313 0.494407 0.000000
0.503322 -0.000000 0.000000
-0.214304 0.455419 0.000000
-0.155535 0.478688 0.000000
0.031604 0.502329 0.000000
0.467977 0.185285 0.000000
0.366906 -0.344547 0.000000
0.407196 -0.295845 0.000000
0.320829 0.387816 0.000000
0.269693 0.424969 0.000000
-0.366906 0.344547 0.000000
-0.320829 0.387816 0.000000
0.214304 0.455419 0.000000
-0.320829 -0.387816 0.000000
0.155535 -0.478688 0.000000
-0.487509 -0.125171 0.000000
0.155535 0.478688 0.000000
0.269693 -0.424969 0.000000
-0.031604 -0.502329 0.000000
0.094313 0.494407 0.000000
-0.503322 0.000000 0.000000
0.441064 -0.242477 0.000000
-0.441064 -0.242477 0.000000
-0.487509 0.125171 0.000000
0.094313 -0.494407 0.000000
0.487509 0.125171 0.000000
-0.499353 0.063083 0.000000
0.214304 -0.455419 0.000000
0.031604 -0.502329 0.000000
0.467977 -0.185285 0.000000
0.499353 -0.063083 0.000000
-0.467977 -0.185285 0.000000
-0.214304 -0.455419 0.000000
-0.094313 -0.494407 0.000000
-0.407196 -0.295845 0.000000
0.499353 0.063083 0.000000
-0.155535 -0.478688 0.000000
0.487509 -0.125171 0.000000
-0.467977 0.185285 0.000000
-0.366906 -0.344547 0.000000
-0.441064 0.242477 0.000000
-0.407196 0.295845 0.000000
-0.269693 -0.424969 0.000000
-0.031700 0.503862 0.000000
0.442411 0.243217 0.000000
-0.270517 0.426266 0.000000
0.368026 0.345599 0.000000
-0.500877 -0.063276 0.000000
0.321809 -0.389000 0.000000
0.408439 0.296748 0.000000
-0.094601 0.495916 0.000000
0.504858 -0.000000 0.000000
-0.214958 0.456810 0.000000
-0.156010 0.480149 0.000000
0.031700 0.503862 0.000000
0.469405 0.185851 0.000000
0.368026 -0.345599 0.000000
0.408439 -0.296748 0.000000
0.321809 0.389000 0.000000
0.270517 0.426266 0.000000
-0.368026 0.345599 0.000000
-0.321809 0.389000 0.000000
0.214958 0.456810 0.000000
-0.321809 -0.389000 0.000000
0.156010 -0.480149 0.000000
0.270517 -0.426266 0.000000
-0.488997 -0.125553 0.000000
0.156010 0.480149 0.000000
-0.031700 -0.503862 0.000000
0.094601 0.495916 0.000000
-0.504858 0.000000 0.000000
0.442411 -0.243217 0.000000
-0.442411 -0.243217 0.000000
-0.488997 0.125553 0.000000
0.094601 -0.495916 0.000000
0.488997 0.125553 0.000000
-0.500877 0.063276 0.000000
0.214958 -0.456810 0.000000
0.031700 -0.503862 0.000000
0.469405 -0.185851 0.000000
0.500877 -0.063276 0.000000
-0.469405 -0.185851 0.000000
-0.214958 -0.456810 0.000000
-0.094601 -0.495916 0.000000
-0.408439 -0.296748 0.000000
-0.469405 0.185851 0.000000
0.500877 0.063276 0.000000
-0.156010 -0.480149 0.000000
0.488997 -0.125553 0.000000
-0.368026 -0.345599 0.000000
-0.442411 0.243217 0.000000
-0.408439 0.296748 0.000000
-0.270517 -0.426266 0.000000
-0.031815 0.505686 0.000000
0.444012 0.244098 0.000000
-0.271496 0.427809 0.000000
0.369358 0.346850 0.000000
-0.502691 -0.063505 0.000000
0.322974 -0.390408 0.000000
0.409918 0.297823 0.000000
-0.094943 0.497711 0.000000
0.506686 -0.000000 0.000000
-0.215736 0.458463 0.000000
-0.156575 0.481887 0.000000
0.031815 0.505686 0.000000
0.369358 -0.346850 0.000000
0.409918 -0.297823 0.000000
0.471105 0.186524 0.000000
0.322974 0.390408 0.000000
0.271496 0.427809 0.000000
-0.369358 0.346850 0.000000
-0.322974 0.390408 0.000000
0.215736 0.458463 0.000000
0.156575 -0.481887 0.000000
-0.322974 -0.390408 0.000000
0.271496 -0.427809 0.000000
-0.490768 -0.126008 0.000000
0.156575 0.481887 0.000000
-0.031815 -0.505686 0.000000
0.094943 0.497711 0.000000
-0.506686 0.000000 0.000000
0.444012 -0.244098 0.000000
-0.490768 0.126008 0.000000
-0.444012 -0.244098 0.000000
0.094943 -0.497711 0.000000
0.490768 0.126008 0.000000
-0.502691 0.063505 0.000000
0.215736 -0.458463 0.000000
0.031815 -0.505686 0.000000
0.471105 -0.186524 0.000000
-0.471105 -0.186524 0.000000
0.502691 -0.063505 0.000000
-0.215736 -0.458463 0.000000
-0.094943 -0.497711 0.000000
-0.409918 -0.297823 0.000000
-0.471105 0.186524 0.000000
0.502691 0.063505 0.000000
-0.156575 -0.481887 0.000000
0.490768 -0.126008 0.000000
-0.369358 -0.346850 0.000000
-0.444012 0.244098 0.000000
-0.409918 0.297823 0.000000
-0.271496 -0.427809 0.000000
-0.031952 0.507855 0.000000
0.445917 0.245145 0.000000
-0.272661 0.429644 0.000000
0.370943 0.348338 0.000000
-0.504847 -0.063777 0.000000
0.324359 -0.392083 0.000000
0.411676 0.299100 0.000000
-0.095351 0.499846 0.000000
0.508859 -0.000000 0.000000
-0.216662 0.460430 0.000000
-0.157246 0.483954 0.000000
0.031952 0.507855 0.000000
0.370943 -0.348338 0.000000
0.411676 -0.299100 0.000000
0.324359 0.392083 0.000000
0.473126 0.187324 0.000000
0.272661 0.429644 0.000000
-0.370943 0.348338 0.000000
-0.324359 0.392083 0.000000
0.216662 0.460430 0.000000
0.157246 -0.483954 0.000000
-0.324359 -0.392083 0.000000
0.272661 -0.429644 0.000000
0.157246 0.483954 0.000000
-0.492873 -0.126548 0.000000
-0.031952 -0.507855 0.000000
0.095351 0.499846 0.000000
0.445917 -0.245145 0.000000
-0.508859 0.000000 0.000000
-0.492873 0.126548 0.000000
-0.445917 -0.245145 0.000000
0.095351 -0.499846 0.000000
-0.504847 0.063777 0.000000
0.216662 -0.460430 0.000000
0.492873 0.126548 0.000000
0.031952 -0.507855 0.000000
0.473126 -0.187324 0.000000
-0.473126 -0.187324 0.000000
0.504847 -0.063777 0.000000
-0.216662 -0.460430 0.000000
-0.095351 -0.499846 0.000000
-0.473126 0.187324 0.000000
-0.411676 -0.299100 0.000000
-0.157246 -0.483954 0.000000
0.504847 0.063777 0.000000
0.492873 -0.126548 0.000000
-0.370943 -0.348338 0.000000
-0.445917 0.245145 0.000000
-0.411676 0.299100 0.000000
-0.272661 -0.429644 0.000000
0.318712 0.385257 0.100000
-0.318712 0.385257 0.100000
[...]
POINT_DATA 5000
SCALARS pressure float 1
LOOKUP_TABLE default
101715.644057
101715.644057
101715.644057
101715.644057
101715.644057
101715.644057
101715.644057
101715.644057
101715.644057
101715.644057
101715.644057
101715.644057
101715.644057
101715.644057
101715.644057
101715.644057
101325.000000
101325.000000
101325.000000
101325.000000
101325.000000
101325.000000
101325.000000
101325.000000
101325.000000
101325.000000
101325.000000
101325.000000
101325.000000
101325.000000
101325.000000
101325.000000
101325.000000
101325.000000
101325.000000
101325.000000
101325.000000
101325.000000
101325.000000
101325.000000
101325.000000
101325.000000
101325.000000
101325.000000
101325.000000
101325.000000
101325.000000
101325.000000
101325.000000
101325.000000
101323.833353
101324.728165
101324.165017
101324.451140
101324.981601
101324.304631
101324.595338
101323.869860
101325.000000
101324.041071
101323.940581
101323.833353
101324.841275
101324.304631
101324.451140
101324.595338
101324.451140
101324.304631
101324.165017
101324.041071
101324.304631
101323.940581
101324.927561
101323.940581
101324.165017
101323.869860
101323.833353
101325.000000
101324.728165
101324.728165
101323.869860
101324.927561
101324.927561
101324.981601
101324.041071
101323.833353
101324.981601
101324.841275
101324.841275
101324.041071
101323.869860
101324.595338
101324.981601
101324.927561
101323.940581
101324.451140
101324.841275
101324.728165
101324.595338
101324.165017
101322.488729
101324.414861
101323.202655
101323.818549
101324.960396
101323.503181
101324.128943
101322.567313
101325.000000
101322.935854
101322.719543
101322.488729
101324.658336
101323.818549
101324.128943
101323.503181
101323.818549
101323.503181
101323.202655
101322.935854
101323.503181
101322.719543
101324.844072
101322.719543
101323.202655
101322.567313
101322.488729
101325.000000
101324.414861
101324.414861
101322.567313
101324.844072
101324.844072
101324.960396
101322.935854
101322.488729
101324.658336
101324.960396
101324.658336
101322.935854
101322.567313
101324.128943
101324.960396
101322.719543
101324.844072
101323.818549
101324.658336
101324.414861
101324.128943
101323.202655
101320.904743
101324.045784
101322.068978
101323.073347
101324.935415
101322.559060
101323.579523
101321.032894
101325.000000
101321.633893
101321.281143
101320.904743
101324.442832
101323.073347
101323.579523
101322.559060
101322.068978
101323.073347
101322.559060
101321.633893
101322.559060
101321.281143
101324.745719
101321.281143
101322.068978
101320.904743
101321.032894
101325.000000
101324.045784
101324.045784
101324.745719
101321.032894
101324.745719
101324.935415
101321.633893
101320.904743
101324.442832
101324.935415
101324.442832
101321.633893
101321.032894
101323.579523
101324.935415
101321.281143
101324.745719
101324.442832
101323.073347
101324.045784
101323.579523
101322.068978
101319.037689
101323.610750
101320.732706
101322.194974
101324.905971
101321.446220
101322.931918
101319.224264
101325.000000
101320.099262
101319.585692
101319.037689
101324.188815
101322.194974
101322.931918
101321.446220
101320.732706
101322.194974
101321.446220
101320.099262
101321.446220
101319.585692
101320.732706
101324.629791
101319.585692
101319.037689
101319.224264
101325.000000
101323.610750
101323.610750
101324.629791
101319.224264
101324.629791
101324.905971
101320.099262
101319.037689
101324.188815
101324.905971
101324.188815
101320.099262
101319.224264
101322.931918
101324.188815
101324.905971
101319.585692
101324.629791
101322.194974
101323.610750
101322.931918
101320.732706
101316.839039
101323.098453
101319.159107
101321.160598
101324.871297
101320.135736
101322.169297
101317.094416
101325.000000
101318.292076
101317.589123
101316.839039
101321.160598
101322.169297
101323.889684
101320.135736
101319.159107
101321.160598
101320.135736
101318.292076
101317.589123
101320.135736
101319.159107
101324.493274
101317.589123
101316.839039
101317.094416
101325.000000
101323.098453
101324.493274
101323.098453
101317.094416
101324.493274
101324.871297
101318.292076
101316.839039
101323.889684
101323.889684
101324.871297
101318.292076
101317.094416
101322.169297
101323.889684
101324.871297
101317.589123
101324.493274
101321.160598
101323.098453
101322.169297
101319.159107
101314.255202
101322.496406
101317.309825
101319.945007
101324.830548
101318.595664
101321.273070
101314.591434
101325.000000
101316.168285
101315.242770
101314.255202
101319.945007
101321.273070
101318.595664
101323.538148
101317.309825
101319.945007
101318.595664
101316.168285
101315.242770
101318.595664
101317.309825
101315.242770
101324.332840
101314.255202
101314.591434
101322.496406
101325.000000
101324.332840
101322.496406
101314.591434
101324.830548
101316.168285
101324.332840
101314.255202
101323.538148
101323.538148
101324.830548
101316.168285
101314.591434
101323.538148
101321.273070
101315.242770
101324.830548
101324.332840
101319.945007
101322.496406
101321.273070
101317.309825
101715.644057
101715.644057
101715.644057
101715.644057
101715.644057
101715.644057
101715.644057
101715.644057
101715.644057
101715.644057
101715.644057
101715.644057
101715.644057
101715.644057
101715.644057
101715.644057
101325.000000
101325.000000
101325.000000
101325.000000
101325.000000
101325.000000
101325.000000
101325.000000
101325.000000
101325.000000
101325.000000
101325.000000
101325.000000
101325.000000
101325.000000
101325.000000
101325.000000
101325.000000
101325.000000
101325.000000
101325.000000
101325.000000
101325.000000
101325.000000
101325.000000
101325.000000
101325.000000
101325.000000
101325.000000
101325.000000
101325.000000
101325.000000
101325.000000
101325.000000
101323.833353
101324.728165
101323.869860
101324.595338
101324.595338
101323.940581
101324.451140
101323.940581
101324.165017
101324.041071
101324.165017
101324.304631
101324.728165
101323.833353
101324.981601
101323.940581
101324.451140
101324.841275
101324.927561
101324.041071
101324.304631
101323.869860
101324.304631
101324.165017
101324.927561
101324.728165
101325.000000
101324.041071
101324.927561
101323.869860
101324.041071
101324.841275
101324.841275
101325.000000
101324.981601
101324.451140
101323.833353
101323.833353
101324.304631
101324.981601
101324.728165
101324.841275
101324.595338
101324.981601
101323.940581
101323.869860
101324.165017
101324.927561
101324.451140
101324.595338
101311.226958
101321.790809
101318.520340
101315.142476
101324.782791
101316.790707
101320.222696
101311.657951
101325.000000
101313.679212
101312.492855
101311.226958
101318.520340
101320.222696
101316.790707
101323.126149
101315.142476
101313.679212
101318.520340
101316.790707
101312.492855
101316.790707
101315.142476
101312.492855
101324.144812
101311.226958
101311.657951
101321.790809
101325.000000
101324.144812
101321.790809
101311.657951
101313.679211
101324.782791
101324.144812
101311.226958
101323.126149
101323.126149
101324.782791
101313.679211
101323.126149
101311.657951
101320.222696
101312.492855
101324.782791
101324.144812
101318.520340
101321.790809
101320.222696
101315.142476
101322.488729
101324.414861
101322.567313
101324.128943
101324.128943
101323.818549
101322.719543
101322.719543
101323.202655
101322.935854
101323.202655
101323.503181
101324.414861
101322.488729
101324.960396
101322.719543
101323.818549
101324.658336
101324.844072
101322.935854
101323.503181
101322.567313
101323.503181
101323.202655
101324.844072
101324.414861
101322.935854
101325.000000
101324.844072
101322.567313
101322.935854
101324.658336
101324.658336
101324.960396
101325.000000
101323.818549
101322.488729
101322.488729
101323.503181
101324.960396
101324.414861
101324.658336
101324.128943
101324.960396
101322.719543
101322.567313
101323.202655
101324.844072
101323.818549
101324.128943
101320.904743
101324.045784
101321.032894
101323.579523
101323.579523
101323.073347
101321.281143
101321.281143
101322.068978
101321.633893
101322.068978
101322.559060
101324.045784
101324.935415
101320.904743
101321.281143
101323.073347
101324.745719
101324.442832
101321.633893
101322.559060
101321.032894
101322.559060
101322.068978
101324.745719
101324.045784
101321.633893
101325.000000
101324.745719
101321.032894
101321.633893
101324.442832
101324.442832
101324.935415
101325.000000
101323.073347
101320.904743
101320.904743
101322.559060
101324.935415
101324.045784
101324.442832
101323.579523
101324.935415
101321.281143
101321.032894
101322.068978
101324.745719
101323.073347
101323.579523
101307.686205
101320.965795
101316.854559
101312.608319
101324.726951
101314.680275
101318.994554
101308.227996
101325.000000
101310.768880
101309.277537
101307.686205
101318.994554
101316.854559
101314.680274
101322.644422
101312.608319
101310.768880
101316.854559
101314.680274
101309.277537
101312.608319
101314.680274
101309.277537
101323.924961
101307.686205
101320.965795
101308.227996
101325.000000
101323.924961
101320.965795
101308.227996
101310.768880
101324.726951
101323.924961
101307.686205
101322.644422
101322.644422
101324.726951
101310.768880
101322.644422
101308.227996
101318.994553
101309.277537
101324.726951
101320.965795
101323.924961
101316.854559
101312.608319
101318.994553
101319.037689
101323.610750
101319.224264
101322.931918
101322.931918
101322.194974
101319.585692
101319.585692
101320.732706
101320.732706
101320.099262
101321.446220
101323.610750
101324.905971
101319.037689
101319.585692
101322.194974
101324.629791
101324.188815
101320.099262
101321.446220
101319.224264
101321.446220
101320.732706
101324.629791
101323.610750
101320.099262
101325.000000
101324.629791
101319.224264
101320.099262
101324.188815
101324.188815
101324.905971
101325.000000
101322.194974
101319.037689
101319.037689
101321.446220
101324.905971
101323.610750
101324.188815
101322.931918
101324.905971
101319.585692
101319.224264
101320.732706
101324.629791
101322.194974
101322.931918
101316.839039
101323.098453
101322.169297
101317.094416
101322.169297
101321.160598
101317.589123
101317.589123
101319.159107
101319.159107
101318.292076
101320.135736
101323.098453
101324.871297
101317.589123
101316.839039
101321.160598
101324.493274
101318.292076
101323.889684
101320.135736
101317.094416
101319.159107
101320.135736
101324.493274
101323.098453
101318.292076
101325.000000
101317.094416
101324.493274
101318.292076
101323.889684
101323.889684
101324.871297
101325.000000
101321.160598
101316.839039
101316.839039
101320.135736
101324.871297
101323.098453
101323.889684
101322.169297
101317.589123
101317.094416
101324.871297
101319.159107
101324.493274
101321.160598
101322.169297
101303.553763
101320.002914
101314.910412
101309.650683
101324.661780
101312.217171
101317.561179
101304.224869
101325.000000
101307.372209
101305.524913
101303.553763
101317.561179
101314.910412
101312.217171
101309.650683
101322.082195
101307.372209
101314.910412
101312.217171
101305.524913
101309.650683
101312.217171
101305.524913
101323.668372
101303.553763
101320.002914
101304.224869
101325.000000
101323.668372
101304.224869
101320.002914
101307.372209
101324.661780
101323.668372
101303.553763
101322.082195
101322.082195
101322.082195
101307.372208
101324.661780
101304.224869
101305.524913
101317.561179
101324.661780
101320.002914
101323.668372
101314.910412
101309.650683
101317.561179
101314.255202
101322.496406
101321.273070
101314.591434
101321.273070
101319.945007
101315.242770
101315.242770
101317.309825
101317.309825
101316.168285
101318.595664
101322.496406
101324.830548
101315.242770
101314.255202
101319.945007
101324.332840
101316.168285
101323.538148
101318.595664
101317.309825
101314.591434
101318.595664
101324.332840
101322.496406
101316.168285
101325.000000
101314.591434
101324.332840
101316.168285
101323.538148
101323.538148
101324.830548
101325.000000
101319.945007
101314.255202
101314.255202
101318.595664
101323.538148
101322.496406
101324.830548
101321.273070
101315.242770
101314.591434
101317.309825
101324.830548
101324.332840
101319.945007
101321.273070
101311.226958
101321.790809
101320.222696
101320.222696
101318.520340
101311.657951
101312.492855
101312.492855
101315.142476
101315.142476
101313.679212
101316.790707
101321.790809
101324.782791
101312.492855
101311.226958
101318.520340
101324.144812
101313.679212
101323.126149
101316.790707
101315.142476
101311.657951
101324.144812
101321.790809
101316.790707
101313.679211
101311.657951
101325.000000
101313.679211
101324.144812
101323.126149
101323.126149
101324.782791
101325.000000
101311.226958
101318.520340
101311.226958
101316.790707
101323.126149
101321.790809
101324.782791
101320.222696
101312.492855
101311.657951
101315.142476
101324.782791
101324.144812
101318.520340
101320.222696
101298.760197
101318.885988
101312.655233
101306.219873
101324.586183
101309.360011
101315.898487
101299.581306
101325.000000
101303.432124
101301.171930
101298.760197
101315.898487
101312.655233
101309.360011
101306.219873
101303.432124
101321.430020
101301.171930
101312.655233
101309.360011
101306.219873
101301.171930
101309.360011
101323.370732
101318.885988
101298.760197
101299.581306
101325.000000
101323.370732
101299.581306
101318.885988
101303.432124
101324.586183
101323.370732
101298.760197
101321.430020
101321.430020
101321.430020
101303.432124
101324.586183
101299.581306
101301.171930
101315.898487
101318.885988
101324.586183
101323.370732
101312.655233
101306.219873
101315.898487
101307.686205
101320.965795
101318.994554
101318.994554
101316.854559
101309.277537
101308.227996
101309.277537
101312.608319
101312.608319
101314.680274
101310.768880
101320.965795
101309.277537
101324.726951
101307.686205
101316.854559
101323.924961
101310.768880
101322.644422
101314.680274
101312.608319
101308.227996
101320.965795
101323.924961
101314.680274
101310.768880
101308.227996
101310.768880
101325.000000
101323.924961
101322.644422
101322.644422
101324.726951
101325.000000
101307.686205
101307.686205
101316.854559
101322.644422
101314.680274
101320.965795
101324.726951
101318.994553
101309.277537
101308.227996
101312.608319
101323.924961
101324.726951
101316.854559
101318.994553
101293.226726
101317.596660
101310.051958
101302.259504
101324.498916
101306.061838
101313.979153
101294.220991
101325.000000
101296.147047
101298.883873
101293.226726
101313.979153
101310.051958
101306.061838
101302.259504
101298.883873
101320.677180
101296.147047
101302.259504
101310.051958
101306.061838
101296.147047
101323.027151
101317.596660
101306.061838
101293.226726
101294.220991
101323.027151
101325.000000
101294.220991
101317.596660
101298.883873
101324.498916
101293.226726
101323.027151
101320.677180
101320.677180
101320.677180
101298.883873
101294.220991
101324.498916
101296.147047
101313.979153
101317.596660
101324.498916
101323.027151
101310.051958
101302.259504
101313.979153
101303.553763
101320.002914
101317.561179
101317.561179
101314.910412
101305.524913
101304.224869
101305.524913
101309.650683
101309.650683
101312.217171
101307.372209
101320.002914
101305.524913
101324.661780
101314.910412
101323.668372
101303.553763
101307.372209
101322.082195
101312.217171
101309.650683
101320.002914
101304.224869
101323.668372
101307.372209
101312.217171
101307.372209
101304.224869
101325.000000
101323.668372
101322.082195
101322.082195
101324.661780
101325.000000
101303.553763
101303.553763
101314.910412
101322.082195
101312.217171
101320.002914
101324.661780
101305.524913
101317.561179
101304.224869
101309.650683
101323.668372
101324.661780
101314.910412
101317.561179
101298.760197
101318.885988
101315.898487
101301.171930
101312.655233
101315.898487
101299.581306
101301.171930
101306.219873
101306.219873
101309.360011
101318.885988
101303.432124
101301.171930
101324.586183
101312.655233
101323.370732
101298.760197
101303.432124
101309.360011
101306.219873
101321.430020
101318.885988
101299.581306
101323.370732
101303.432124
101303.432124
101309.360011
101299.581306
101325.000000
101323.370732
101321.430020
101321.430020
101324.586183
101298.760197
101298.760197
101325.000000
101321.430020
101312.655233
101309.360011
101318.885988
101324.586183
101301.171930
101306.219873
101299.581306
101315.898487
101323.370732
101324.586183
101312.655233
101315.898487
101286.869401
101316.115370
101307.061094
101297.709494
101302.272613
101324.398658
101311.774057
101288.062602
101325.000000
101290.374031
101293.658452
101311.774057
101286.869401
101307.061094
101302.272613
101293.658452
101297.709494
101319.812252
101290.374031
101297.709494
101290.374031
101307.061093
101316.115370
101302.272613
101322.632415
101286.869400
101302.272613
101288.062602
101322.632415
101325.000000
101288.062602
101316.115370
101293.658452
101324.398658
101286.869400
101322.632415
101319.812252
101319.812252
101319.812252
101293.658452
101288.062602
101290.374031
101324.398658
101316.115370
101311.774057
101324.398658
101322.632415
101297.709493
101307.061093
101311.774057
101293.226726
101317.596660
101313.979153
101296.147047
101310.051958
101313.979153
101294.220991
101296.147047
101302.259504
101302.259504
101306.061838
101317.596660
101296.147047
101298.883873
101324.498916
101323.027151
101310.051958
101298.883873
101293.226726
101302.259504
101306.061838
101317.596660
101320.677180
101298.883873
101323.027151
101298.883873
101294.220991
101306.061838
101294.220991
101320.677180
101320.677180
101325.000000
101323.027151
101324.498916
101293.226726
101293.226726
101320.677180
101325.000000
101310.051958
101317.596660
101306.061838
101324.498916
101296.147047
101302.259504
101294.220991
101313.979153
101323.027151
101324.498916
101310.051958
101313.979153
101279.587565
101314.418664
101303.635284
101292.497801
101297.932343
101324.283819
101309.248286
101281.008633
101325.000000
101309.248286
101303.635284
101283.761478
101287.673128
101279.587565
101287.673128
101297.932343
101292.497800
101283.761478
101292.497800
101318.821543
101314.418664
101283.761478
101322.180275
101303.635284
101297.932343
101279.587565
101297.932343
101322.180275
101281.008633
101325.000000
101281.008633
101314.418664
101287.673128
101324.283819
101318.821543
101279.587565
101318.821543
101322.180275
101287.673128
101318.821543
101281.008633
101283.761477
101324.283819
101314.418664
101309.248286
101324.283819
101292.497800
101322.180275
101303.635284
101309.248286
101286.869401
101316.115370
101311.774057
101290.374031
101307.061094
101311.774057
101288.062602
101297.709494
101290.374031
101302.272613
101297.709494
101316.115370
101290.374031
101322.632415
101324.398658
101307.061094
101293.658452
101293.658452
101286.869400
101297.709494
101302.272613
101293.658452
101316.115370
101293.658452
101322.632415
101319.812252
101288.062602
101288.062602
101302.272613
101319.812252
101319.812252
101322.632415
101325.000000
101324.398658
101319.812252
101286.869400
101286.869400
101325.000000
101316.115370
101307.061093
101302.272613
101290.374031
101324.398658
101297.709493
101288.062602
101311.774057
101322.632415
101324.398658
101307.061093
101311.774057
101271.341362
101312.497255
101299.755779
101286.595899
101293.017271
101324.153771
101306.388016
101273.020474
101325.000000
101306.388016
101299.755779
101280.895140
101293.017271
101286.595899
101276.273194
101271.341362
101280.895140
101276.273194
101286.595899
101312.497255
101276.273193
101317.699630
101321.668257
101271.341362
101299.755779
101293.017271
101293.017271
101321.668257
101273.020474
101325.000000
101273.020474
101312.497255
101280.895140
101317.699630
101324.153771
101271.341362
101280.895140
101317.699630
101321.668257
101317.699630
101276.273193
101273.020474
101312.497255
101324.153771
101306.388016
101286.595899
101324.153771
101321.668257
101299.755779
101306.388016
101279.587565
101309.248286
101314.418664
101283.761478
101303.635284
101309.248286
101281.008633
101292.497800
101297.932343
101283.761478
101314.418664
101292.497800
101283.761478
101322.180275
101303.635284
101324.283819
101287.673128
101287.673128
101279.587565
101287.673128
101292.497800
101297.932343
101314.418664
101287.673128