# vtk DataFile Version 3.0
Time Step 84, Physical Time = 0.000840s, Residual = 4.32e-03
ASCII
DATASET UNSTRUCTURED_GRID
POINTS 5000 float
0.318712 0.385257 0.000000
-0.318712 0.385257 0.000000
-0.318712 -0.385257 0.000000
0.318712 -0.385257 0.000000
0.093691 0.491144 0.000000
-0.093691 0.491144 0.000000
-0.093691 -0.491144 0.000000
0.093691 -0.491144 0.000000
0.404508 0.293893 0.000000
-0.404508 0.293893 0.000000
-0.404508 -0.293893 0.000000
0.404508 -0.293893 0.000000
0.438153 0.240877 0.000000
-0.438153 0.240877 0.000000
-0.438153 -0.240877 0.000000
0.438153 -0.240877 0.000000
0.500000 0.000000 0.000000
-0.500000 -0.000000 0.000000
0.364484 0.342274 0.000000
-0.364484 0.342274 0.000000
-0.364484 -0.342274 0.000000
0.364484 -0.342274 0.000000
0.496057 0.062667 0.000000
-0.496057 0.062667 0.000000
-0.496057 -0.062667 0.000000
0.496057 -0.062667 0.000000
0.212890 0.452414 0.000000
-0.212890 0.452414 0.000000
-0.212890 -0.452414 0.000000
0.212890 -0.452414 0.000000
0.154508 0.475528 0.000000
-0.154508 0.475528 0.000000
-0.154508 -0.475528 0.000000
0.154508 -0.475528 0.000000
0.267913 0.422164 0.000000
-0.267913 0.422164 0.000000
-0.267913 -0.422164 0.000000
0.267913 -0.422164 0.000000
0.031395 0.499013 0.000000
-0.031395 0.499013 0.000000
-0.031395 -0.499013 0.000000
0.031395 -0.499013 0.000000
0.464888 0.184062 0.000000
-0.464888 0.184062 0.000000
-0.464888 -0.184062 0.000000
0.464888 -0.184062 0.000000
0.484292 0.124345 0.000000
-0.484292 0.124345 0.000000
-0.484292 -0.124345 0.000000
0.484292 -0.124345 0.000000
-0.031454 0.499951 0.000000
0.438977 0.241329 0.000000
-0.268417 0.422957 0.000000
0.365169 0.342917 0.000000
-0.496990 -0.062784 0.000000
0.319311 -0.385981 0.000000
0.405269 0.294445 0.000000
-0.093867 0.492067 0.000000
0.500940 -0.000000 0.000000
-0.213290 0.453264 0.000000
-0.154799 0.476422 0.000000
0.031454 0.499951 0.000000
0.465762 0.184408 0.000000
0.319311 0.385981 0.000000
0.365169 -0.342917 0.000000
0.405269 -0.294445 0.000000
-0.365169 0.342917 0.000000
-0.319311 0.385981 0.000000
0.268417 0.422957 0.000000
0.213290 0.453264 0.000000
-0.319311 -0.385981 0.000000
0.154799 -0.476422 0.000000
-0.485202 -0.124579 0.000000
0.154799 0.476422 0.000000
0.268417 -0.422957 0.000000
0.093867 0.492067 0.000000
-0.031454 -0.499951 0.000000
-0.500940 0.000000 0.000000
0.438977 -0.241329 0.000000
-0.438977 -0.241329 0.000000
0.093867 -0.492067 0.000000
-0.485202 0.124579 0.000000
0.485202 0.124579 0.000000
-0.496990 0.062784 0.000000
0.213290 -0.453264 0.000000
0.031454 -0.499951 0.000000
0.496990 -0.062784 0.000000
0.465762 -0.184408 0.000000
-0.465762 -0.184408 0.000000
-0.213290 -0.453264 0.000000
-0.093867 -0.492067 0.000000
-0.405269 -0.294445 0.000000
0.496990 0.062784 0.000000
0.485202 -0.124579 0.000000
-0.154799 -0.476422 0.000000
-0.365169 -0.342917 0.000000
-0.465762 0.184408 0.000000
-0.438977 0.241329 0.000000
-0.405269 0.294445 0.000000
-0.268417 -0.422957 0.000000
-0.031523 0.501039 0.000000
0.439932 0.241854 0.000000
-0.269001 0.423877 0.000000
0.365964 0.343663 0.000000
-0.498071 -0.062921 0.000000
0.320005 -0.386820 0.000000
0.406150 0.295085 0.000000
-0.094071 0.493137 0.000000
0.502029 -0.000000 0.000000
-0.213754 0.454250 0.000000
-0.155136 0.477458 0.000000
0.031523 0.501039 0.000000
0.466775 0.184809 0.000000
0.365964 -0.343663 0.000000
0.406150 -0.295085 0.000000
0.320005 0.386820 0.000000
-0.365964 0.343663 0.000000
-0.320005 0.386820 0.000000
0.269001 0.423877 0.000000
0.213754 0.454250 0.000000
-0.320005 -0.386820 0.000000
0.155136 -0.477458 0.000000
-0.486257 -0.124850 0.000000
0.155136 0.477458 0.000000
0.269001 -0.423877 0.000000
0.094071 0.493137 0.000000
-0.031523 -0.501039 0.000000
-0.502029 0.000000 0.000000
0.439932 -0.241854 0.000000
-0.439932 -0.241854 0.000000
0.094071 -0.493137 0.000000
-0.486257 0.124850 0.000000
0.486257 0.124850 0.000000
-0.498071 0.062921 0.000000
0.213754 -0.454250 0.000000
0.031523 -0.501039 0.000000
0.466775 -0.184809 0.000000
0.498071 -0.062921 0.000000
-0.466775 -0.184809 0.000000
-0.213754 -0.454250 0.000000
-0.094071 -0.493137 0.000000
-0.406150 -0.295085 0.000000
0.498071 0.062921 0.000000
-0.155136 -0.477458 0.000000
0.486257 -0.124850 0.000000
-0.365964 -0.343663 0.000000
-0.466775 0.184809 0.000000
-0.439932 0.241854 0.000000
-0.406150 0.295085 0.000000
-0.269001 -0.423877 0.000000
-0.031604 0.502329 0.000000
0.441064 0.242477 0.000000
-0.269693 0.424969 0.000000
0.366906 0.344547 0.000000
-0.499353 -0.063083 0.000000
0.320829 -0.387816 0.000000
0.407196 0.295845 0.000000
-0.094313 0.494407 0.000000
0.503322 -0.000000 0.000000
-0.214304 0.455419 0.000000
-0.155535 0.478688 0.000000
0.031604 0.502329 0.000000
0.467977 0.185285 0.000000
0.366906 -0.344547 0.000000
0.407196 -0.295845 0.000000
0.320829 0.387816 0.000000
0.269693 0.424969 0.000000
-0.366906 0.344547 0.000000
-0.320829 0.387816 0.000000
0.214304 0.455419 0.000000
-0.320829 -0.387816 0.000000
0.155535 -0.478688 0.000000
-0.487509 -0.125171 0.000000
0.155535 0.478688 0.000000
0.269693 -0.424969 0.000000
-0.031604 -0.502329 0.000000
0.094313 0.494407 0.000000
-0.503322 0.000000 0.000000
0.441064 -0.242477 0.000000
-0.441064 -0.242477 0.000000
-0.487509 0.125171 0.000000
0.094313 -0.494407 0.000000
0.487509 0.125171 0.000000
-0.499353 0.063083 0.000000
0.214304 -0.455419 0.000000
0.031604 -0.502329 0.000000
0.467977 -0.185285 0.000000
0.499353 -0.063083 0.000000
-0.467977 -0.185285 0.000000
-0.214304 -0.455419 0.000000
-0.094313 -0.494407 0.000000
-0.407196 -0.295845 0.000000
0.499353 0.063083 0.000000
-0.155535 -0.478688 0.000000
0.487509 -0.125171 0.000000
-0.467977 0.185285 0.000000
-0.366906 -0.344547 0.000000
-0.441064 0.242477 0.000000
-0.407196 0.295845 0.000000
-0.269693 -0.424969 0.000000
-0.031700 0.503862 0.000000
0.442411 0.243217 0.000000
-0.270517 0.426266 0.000000
0.368026 0.345599 0.000000
-0.500877 -0.063276 0.000000
0.321809 -0.389000 0.000000
0.408439 0.296748 0.000000
-0.094601 0.495916 0.000000
0.504858 -0.000000 0.000000
-0.214958 0.456810 0.000000
-0.156010 0.480149 0.000000
0.031700 0.503862 0.000000
0.469405 0.185851 0.000000
0.368026 -0.345599 0.000000
0.408439 -0.296748 0.000000
0.321809 0.389000 0.000000
0.270517 0.426266 0.000000
-0.368026 0.345599 0.000000
-0.321809 0.389000 0.000000
0.214958 0.456810 0.000000
-0.321809 -0.389000 0.000000
0.156010 -0.480149 0.000000
0.270517 -0.426266 0.000000
-0.488997 -0.125553 0.000000
0.156010 0.480149 0.000000
-0.031700 -0.503862 0.000000
0.094601 0.495916 0.000000
-0.504858 0.000000 0.000000
0.442411 -0.243217 0.000000
-0.442411 -0.243217 0.000000
-0.488997 0.125553 0.000000
0.094601 -0.495916 0.000000
0.488997 0.125553 0.000000
-0.500877 0.063276 0.000000
0.214958 -0.456810 0.000000
0.031700 -0.503862 0.000000
0.469405 -0.185851 0.000000
0.500877 -0.063276 0.000000
-0.469405 -0.185851 0.000000
-0.214958 -0.456810 0.000000
-0.094601 -0.495916 0.000000
-0.408439 -0.296748 0.000000
-0.469405 0.185851 0.000000
0.500877 0.063276 0.000000
-0.156010 -0.480149 0.000000
0.488997 -0.125553 0.000000
-0.368026 -0.345599 0.000000
-0.442411 0.243217 0.000000
-0.408439 0.296748 0.000000
-0.270517 -0.426266 0.000000
-0.031815 0.505686 0.000000
0.444012 0.244098 0.000000
-0.271496 0.427809 0.000000
0.369358 0.346850 0.000000
-0.502691 -0.063505 0.000000
0.322974 -0.390408 0.000000
0.409918 0.297823 0.000000
-0.094943 0.497711 0.000000
0.506686 -0.000000 0.000000
-0.215736 0.458463 0.000000
-0.156575 0.481887 0.000000
0.031815 0.505686 0.000000
0.369358 -0.346850 0.000000
0.409918 -0.297823 0.000000
0.471105 0.186524 0.000000
0.322974 0.390408 0.000000
0.271496 0.427809 0.000000
-0.369358 0.346850 0.000000
-0.322974 0.390408 0.000000
0.215736 0.458463 0.000000
0.156575 -0.481887 0.000000
-0.322974 -0.390408 0.000000
0.271496 -0.427809 0.000000
-0.490768 -0.126008 0.000000
0.156575 0.481887 0.000000
-0.031815 -0.505686 0.000000
0.094943 0.497711 0.000000
-0.506686 0.000000 0.000000
0.444012 -0.244098 0.000000
-0.490768 0.126008 0.000000
-0.444012 -0.244098 0.000000
0.094943 -0.497711 0.000000
0.490768 0.126008 0.000000
-0.502691 0.063505 0.000000
0.215736 -0.458463 0.000000
0.031815 -0.505686 0.000000
0.471105 -0.186524 0.000000
-0.471105 -0.186524 0.000000
0.502691 -0.063505 0.000000
-0.215736 -0.458463 0.000000
-0.094943 -0.497711 0.000000
-0.409918 -0.297823 0.000000
-0.471105 0.186524 0.000000
0.502691 0.063505 0.000000
-0.156575 -0.481887 0.000000
0.490768 -0.126008 0.000000
-0.369358 -0.346850 0.000000
-0.444012 0.244098 0.000000
-0.409918 0.297823 0.000000
-0.271496 -0.427809 0.000000
-0.031952 0.507855 0.000000
0.445917 0.245145 0.000000
-0.272661 0.429644 0.000000
0.370943 0.348338 0.000000
-0.504847 -0.063777 0.000000
0.324359 -0.392083 0.000000
0.411676 0.299100 0.000000
-0.095351 0.499846 0.000000
0.508859 -0.000000 0.000000
-0.216662 0.460430 0.000000
-0.157246 0.483954 0.000000
0.031952 0.507855 0.000000
0.370943 -0.348338 0.000000
0.411676 -0.299100 0.000000
0.324359 0.392083 0.000000
0.473126 0.187324 0.000000
0.272661 0.429644 0.000000
-0.370943 0.348338 0.000000
-0.324359 0.392083 0.000000
0.216662 0.460430 0.000000
0.157246 -0.483954 0.000000
-0.324359 -0.392083 0.000000
0.272661 -0.429644 0.000000
0.157246 0.483954 0.000000
-0.492873 -0.126548 0.000000
-0.031952 -0.507855 0.000000
0.095351 0.499846 0.000000
0.445917 -0.245145 0.000000
-0.508859 0.000000 0.000000
-0.492873 0.126548 0.000000
-0.445917 -0.245145 0.000000
0.095351 -0.499846 0.000000
-0.504847 0.063777 0.000000
0.216662 -0.460430 0.000000
0.492873 0.126548 0.000000
0.031952 -0.507855 0.000000
0.473126 -0.187324 0.000000
-0.473126 -0.187324 0.000000
0.504847 -0.063777 0.000000
-0.216662 -0.460430 0.000000
-0.095351 -0.499846 0.000000
-0.473126 0.187324 0.000000
-0.411676 -0.299100 0.000000
-0.157246 -0.483954 0.000000
0.504847 0.063777 0.000000
0.492873 -0.126548 0.000000
-0.370943 -0.348338 0.000000
-0.445917 0.245145 0.000000
-0.411676 0.299100 0.000000
-0.272661 -0.429644 0.000000
0.318712 0.385257 0.100000
-0.318712 0.385257 0.100000
[...]
POINT_DATA 5000
SCALARS pressure float 1
LOOKUP_TABLE default
101731.813012
101731.813012
101731.813012
101731.813012
101731.813012
101731.813012
101731.813012
101731.813012
101731.813012
101731.813012
101731.813012
101731.813012
101731.813012
101731.813012
101731.813012
101731.813012
101325.000000
101325.000000
101325.000000
101325.000000
101325.000000
101325.000000
101325.000000
101325.000000
101325.000000
101325.000000
101325.000000
101325.000000
101325.000000
101325.000000
101325.000000
101325.000000
101325.000000
101325.000000
101325.000000
101325.000000
101325.000000
101325.000000
101325.000000
101325.000000
101325.000000
101325.000000
101325.000000
101325.000000
101325.000000
101325.000000
101325.000000
101325.000000
101325.000000
101325.000000
101323.785065
101324.716914
101324.130457
101324.428422
101324.980840
101324.275849
101324.578589
101323.823083
101325.000000
101324.001381
101323.896731
101323.785065
101324.834705
101324.275849
101324.428422
101324.578589
101324.428422
101324.275849
101324.130457
101324.001381
101324.275849
101323.896731
101324.924563
101323.896731
101324.130457
101323.823083
101323.785065
101325.000000
101324.716914
101324.716914
101323.823083
101324.924563
101324.924563
101324.980840
101324.001381
101323.785065
101324.980840
101324.834705
101324.834705
101324.001381
101323.823083
101324.578589
101324.980840
101324.924563
101323.896731
101324.428422
101324.834705
101324.716914
101324.578589
101324.130457
101322.384787
101324.390642
101323.128262
101323.769648
101324.958757
101323.441227
101324.092890
101322.466623
101325.000000
101322.850418
101322.625154
101322.384787
101324.644195
101323.769648
101324.092890
101323.441227
101323.769648
101323.441227
101323.128262
101322.850418
101323.441227
101322.625154
101324.837618
101322.625154
101323.128262
101322.466623
101322.384787
101325.000000
101324.390642
101324.390642
101322.466623
101324.837618
101324.837618
101324.958757
101322.850418
101322.384787
101324.644195
101324.958757
101324.644195
101322.850418
101322.466623
101324.092890
101324.958757
101322.625154
101324.837618
101323.769648
101324.644195
101324.390642
101324.092890
101323.128262
101320.735238
101324.006288
101321.947661
101322.993602
101324.932742
101322.458029
101323.520729
101320.868693
101325.000000
101321.494568
101321.127218
101320.735238
101324.419770
101322.993602
101323.520729
101322.458029
101321.947661
101322.993602
101322.458029
101321.494568
101322.458029
101321.127218
101324.735195
101321.127218
101321.947661
101320.735238
101320.868693
101325.000000
101324.006288
101324.006288
101324.735195
101320.868693
101324.735195
101324.932742
101321.494568
101320.735238
101324.419770
101324.932742
101324.419770
101321.494568
101320.868693
101323.520729
101324.932742
101321.127218
101324.735195
101324.419770
101322.993602
101324.006288
101323.520729
101321.947661
101318.790906
101323.553248
101320.556080
101322.078872
101324.902079
101321.299128
101322.846320
101318.985204
101325.000000
101319.896418
101319.361591
101318.790906
101324.155240
101322.078872
101322.846320
101321.299128
101320.556080
101322.078872
101321.299128
101319.896418
101321.299128
101319.361591
101320.556080
101324.614468
101319.361591
101318.790906
101318.985204
101325.000000
101323.553248
101323.553248
101324.614468
101318.985204
101324.614468
101324.902079
101319.896418
101318.790906
101324.155240
101324.902079
101324.155240
101319.896418
101318.985204
101322.846320
101324.155240
101324.902079
101319.361591
101324.614468
101322.078872
101323.553248
101322.846320
101320.556080
101316.501253
101323.019747
101318.917349
101321.001683
101324.865970
101319.934401
101322.052133
101316.767200
101325.000000
101318.014432
101317.282383
101316.501253
101321.001683
101322.052133
101323.843728
101319.934401
101318.917349
101321.001683
101319.934401
101318.014432
101317.282383
101319.934401
101318.917349
101324.472300
101317.282383
101316.501253
101316.767200
101325.000000
101323.019747
101324.472300
101323.019747
101316.767200
101324.472300
101324.865970
101318.014432
101316.501253
101323.843728
101323.843728
101324.865970
101318.014432
101316.767200
101322.052133
101323.843728
101324.865970
101317.282383
101324.472300
101321.001683
101323.019747
101322.052133
101318.917349
101313.810470
101322.392781
101316.991525
101319.735778
101324.823534
101318.330585
101321.118810
101314.160618
101325.000000
101315.802736
101314.838913
101313.810470
101319.735778
101321.118810
101318.330585
101323.477641
101316.991525
101319.735778
101318.330585
101315.802736
101314.838913
101318.330585
101316.991525
101314.838913
101324.305226
101313.810470
101314.160618
101322.392781
101325.000000
101324.305226
101322.392781
101314.160618
101324.823534
101315.802736
101324.305226
101313.810470
101323.477641
101323.477641
101324.823534
101315.802736
101314.160618
101323.477641
101321.118810
101314.838913
101324.823534
101324.305226
101319.735778
101322.392781
101321.118810
101316.991525
101731.813012
101731.813012
101731.813012
101731.813012
101731.813012
101731.813012
101731.813012
101731.813012
101731.813012
101731.813012
101731.813012
101731.813012
101731.813012
101731.813012
101731.813012
101731.813012
101325.000000
101325.000000
101325.000000
101325.000000
101325.000000
101325.000000
101325.000000
101325.000000
101325.000000
101325.000000
101325.000000
101325.000000
101325.000000
101325.000000
101325.000000
101325.000000
101325.000000
101325.000000
101325.000000
101325.000000
101325.000000
101325.000000
101325.000000
101325.000000
101325.000000
101325.000000
101325.000000
101325.000000
101325.000000
101325.000000
101325.000000
101325.000000
101325.000000
101325.000000
101323.785065
101324.716914
101323.823083
101324.578589
101324.578589
101323.896731
101324.428422
101323.896731
101324.130457
101324.001381
101324.130457
101324.275849
101324.716914
101323.785065
101324.980840
101323.896731
101324.428422
101324.834705
101324.924563
101324.001381
101324.275849
101323.823083
101324.275849
101324.130457
101324.924563
101324.716914
101325.000000
101324.001381
101324.924563
101323.823083
101324.001381
101324.834705
101324.834705
101325.000000
101324.980840
101324.428422
101323.785065
101323.785065
101324.275849
101324.980840
101324.716914
101324.834705
101324.578589
101324.980840
101323.896731
101323.823083
101324.130457
101324.924563
101324.428422
101324.578589
101310.656885
101321.657979
101318.252144
101314.734468
101324.773801
101316.450921
101320.024961
101311.105717
101325.000000
101313.210638
101311.975178
101310.656885
101318.252144
101320.024961
101316.450921
101323.048589
101314.734468
101313.210638
101318.252144
101316.450921
101311.975178
101316.450921
101314.734468
101311.975178
101324.109415
101310.656885
101311.105717
101321.657979
101325.000000
101324.109415
101321.657979
101311.105717
101313.210638
101324.773801
101324.109415
101310.656885
101323.048589
101323.048589
101324.773801
101313.210638
101323.048589
101311.105717
101320.024961
101311.975178
101324.773801
101324.109415
101318.252144
101321.657979
101320.024961
101314.734468
101322.384787
101324.390642
101322.466623
101324.092890
101324.092890
101323.769648
101322.625154
101322.625154
101323.128262
101322.850418
101323.128262
101323.441227
101324.390642
101322.384787
101324.958757
101322.625154
101323.769648
101324.644195
101324.837618
101322.850418
101323.441227
101322.466623
101323.441227
101323.128262
101324.837618
101324.390642
101322.850418
101325.000000
101324.837618
101322.466623
101322.850418
101324.644195
101324.644195
101324.958757
101325.000000
101323.769648
101322.384787
101322.384787
101323.441227
101324.958757
101324.390642
101324.644195
101324.092890
101324.958757
101322.625154
101322.466623
101323.128262
101324.837618
101323.769648
101324.092890
101320.735238
101324.006288
101320.868693
101323.520729
101323.520729
101322.993602
101321.127218
101321.127218
101321.947661
101321.494568
101321.947661
101322.458029
101324.006288
101324.932742
101320.735238
101321.127218
101322.993602
101324.735195
101324.419770
101321.494568
101322.458029
101320.868693
101322.458029
101321.947661
101324.735195
101324.006288
101321.494568
101325.000000
101324.735195
101320.868693
101321.494568
101324.419770
101324.419770
101324.932742
101325.000000
101322.993602
101320.735238
101320.735238
101322.458029
101324.932742
101324.006288
101324.419770
101323.520729
101324.932742
101321.127218
101320.868693
101321.947661
101324.735195
101322.993602
101323.520729
101306.969578
101320.798817
101316.517415
101312.095421
101324.715649
101314.253136
101318.745985
101307.533795
101325.000000
101310.179847
101308.626776
101306.969578
101318.745985
101316.517415
101314.253136
101322.546923
101312.095421
101310.179847
101316.517415
101314.253136
101308.626776
101312.095421
101314.253136
101308.626776
101323.880465
101306.969578
101320.798817
101307.533795
101325.000000
101323.880465
101320.798817
101307.533795
101310.179847
101324.715649
101323.880465
101306.969578
101322.546923
101322.546923
101324.715649
101310.179847
101322.546923
101307.533795
101318.745985
101308.626776
101324.715649
101320.798817
101323.880465
101316.517415
101312.095421
101318.745985
101318.790906
101323.553248
101318.985204
101322.846320
101322.846320
101322.078872
101319.361591
101319.361591
101320.556080
101320.556080
101319.896418
101321.299128
101323.553248
101324.902079
101318.790906
101319.361591
101322.078872
101324.614468
101324.155240
101319.896418
101321.299128
101318.985204
101321.299128
101320.556080
101324.614468
101323.553248
101319.896418
101325.000000
101324.614468
101318.985204
101319.896418
101324.155240
101324.155240
101324.902079
101325.000000
101322.078872
101318.790906
101318.790906
101321.299128
101324.902079
101323.553248
101324.155240
101322.846320
101324.902079
101319.361591
101318.985204
101320.556080
101324.614468
101322.078872
101322.846320
101316.501253
101323.019747
101322.052133
101316.767200
101322.052133
101321.001683
101317.282383
101317.282383
101318.917349
101318.917349
101318.014432
101319.934401
101323.019747
101324.865970
101317.282383
101316.501253
101321.001683
101324.472300
101318.014432
101323.843728
101319.934401
101316.767200
101318.917349
101319.934401
101324.472300
101323.019747
101318.014432
101325.000000
101316.767200
101324.472300
101318.014432
101323.843728
101323.843728
101324.865970
101325.000000
101321.001683
101316.501253
101316.501253
101319.934401
101324.865970
101323.019747
101323.843728
101322.052133
101317.282383
101316.767200
101324.865970
101318.917349
101324.472300
101321.001683
101322.052133
101302.666093
101319.796082
101314.492799
101309.015367
101324.647781
101311.688084
101317.253282
101303.364976
101325.000000
101306.642585
101304.718829
101302.666093
101317.253282
101314.492799
101311.688084
101309.015367
101321.961425
101306.642585
101314.492799
101311.688084
101304.718829
101309.015367
101311.688084
101304.718829
101323.613255
101302.666093
101319.796082
101303.364976
101325.000000
101323.613255
101303.364976
101319.796082
101306.642585
101324.647781
101323.613255
101302.666093
101321.961425
101321.961425
101321.961425
101306.642585
101324.647781
101303.364976
101304.718829
101317.253282
101324.647781
101319.796082
101323.613255
101314.492799
101309.015367
101317.253282
101313.810470
101322.392781
101321.118810
101314.160618
101321.118810
101319.735778
101314.838913
101314.838913
101316.991525
101316.991525
101315.802736
101318.330585
101322.392781
101324.823534
101314.838913
101313.810470
101319.735778
101324.305226
101315.802736
101323.477641
101318.330585
101316.991525
101314.160618
101318.330585
101324.305226
101322.392781
101315.802736
101325.000000
101314.160618
101324.305226
101315.802736
101323.477641
101323.477641
101324.823534
101325.000000
101319.735778
101313.810470
101313.810470
101318.330585
101323.477641
101322.392781
101324.823534
101321.118810
101314.838913
101314.160618
101316.991525
101324.823534
101324.305226
101319.735778
101321.118810
101310.656885
101321.657979
101320.024961
101320.024961
101318.252144
101311.105717
101311.975178
101311.975178
101314.734468
101314.734468
101313.210638
101316.450921
101321.657979
101324.773801
101311.975178
101310.656885
101318.252144
101324.109415
101313.210638
101323.048589
101316.450921
101314.734468
101311.105717
101324.109415
101321.657979
101316.450921
101313.210638
101311.105717
101325.000000
101313.210638
101324.109415
101323.048589
101323.048589
101324.773801
101325.000000
101310.656885
101318.252144
101310.656885
101316.450921
101323.048589
101321.657979
101324.773801
101320.024961
101311.975178
101311.105717
101314.734468
101324.773801
101324.109415
101318.252144
101320.024961
101297.674119
101318.632926
101312.144277
101305.442554
101324.569055
101308.712664
101315.521771
101298.529213
101325.000000
101302.539419
101300.185674
101297.674119
101315.521771
101312.144277
101308.712664
101305.442554
101302.539419
101321.282257
101300.185674
101312.144277
101308.712664
101305.442554
101300.185674
101308.712664
101323.303296
101318.632926
101297.674119
101298.529213
101325.000000
101323.303296
101298.529213
101318.632926
101302.539419
101324.569055
101323.303296
101297.674119
101321.282257
101321.282257
101321.282257
101302.539419
101324.569055
101298.529213
101300.185674
101315.521771
101318.632926
101324.569055
101323.303296
101312.144277
101305.442554
101315.521771
101306.969578
101320.798817
101318.745985
101318.745985
101316.517415
101308.626776
101307.533795
101308.626776
101312.095421
101312.095421
101314.253136
101310.179847
101320.798817
101308.626776
101324.715649
101306.969578
101316.517415
101323.880465
101310.179847
101322.546923
101314.253136
101312.095421
101307.533795
101320.798817
101323.880465
101314.253136
101310.179847
101307.533795
101310.179847
101325.000000
101323.880465
101322.546923
101322.546923
101324.715649
101325.000000
101306.969578
101306.969578
101316.517415
101322.546923
101314.253136
101320.798817
101324.715649
101318.745985
101308.626776
101307.533795
101312.095421
101323.880465
101324.715649
101316.517415
101318.745985
101291.911615
101317.290232
101309.433251
101301.318264
101324.478176
101305.277978
101313.522994
101292.947032
101325.000000
101294.952809
101297.802913
101291.911614
101313.522994
101309.433251
101305.277978
101301.318264
101297.802913
101320.498256
101294.952809
101301.318264
101309.433251
101305.277978
101294.952809
101322.945494
101317.290232
101305.277978
101291.911614
101292.947032
101322.945494
101325.000000
101292.947032
101317.290232
101297.802913
101324.478176
101291.911614
101322.945494
101320.498256
101320.498256
101320.498256
101297.802913
101292.947032
101324.478176
101294.952808
101313.522994
101317.290232
101324.478176
101322.945494
101309.433251
101301.318264
101313.522994
101302.666093
101319.796082
101317.253282
101317.253282
101314.492799
101304.718829
101303.364976
101304.718829
101309.015367
101309.015367
101311.688084
101306.642585
101319.796082
101304.718829
101324.647781
101314.492799
101323.613255
101302.666093
101306.642585
101321.961425
101311.688084
101309.015367
101319.796082
101303.364976
101323.613255
101306.642585
101311.688084
101306.642585
101303.364976
101325.000000
101323.613255
101321.961425
101321.961425
101324.647781
101325.000000
101302.666093
101302.666093
101314.492799
101321.961425
101311.688084
101319.796082
101324.647781
101304.718829
101317.253282
101303.364976
101309.015367
101323.613255
101324.647781
101314.492799
101317.253282
101297.674119
101318.632926
101315.521771
101300.185674
101312.144277
101315.521771
101298.529213
101300.185674
101305.442554
101305.442554
101308.712664
101318.632926
101302.539419
101300.185674
101324.569055
101312.144277
101323.303296
101297.674119
101302.539419
101308.712664
101305.442554
101321.282257
101318.632926
101298.529213
101323.303296
101302.539419
101302.539419
101308.712664
101298.529213
101325.000000
101323.303296
101321.282257
101321.282257
101324.569055
101297.674119
101297.674119
101325.000000
101321.282257
101312.144277
101308.712664
101318.632926
101324.569055
101300.185674
101305.442554
101298.529213
101315.521771
101323.303296
101324.569055
101312.144277
101315.521771
101285.291156
101315.747630
101306.318593
101296.579926
101301.331915
101324.373768
101311.226628
101286.533744
101325.000000
101288.940844
101292.361210
101311.226628
101285.291156
101306.318593
101301.331915
101292.361210
101296.579926
101319.597529
101288.940844
101296.579926
101288.940844
101306.318593
101315.747630
101301.331915
101322.534420
101285.291156
101301.331915
101286.533744
101322.534420
101325.000000
101286.533744
101315.747630
101292.361209
101324.373768
101285.291156
101322.534420
101319.597529
101319.597529
101319.597529
101292.361209
101286.533744
101288.940844
101324.373768
101315.747630
101311.226628
101324.373768
101322.534420
101296.579926
101306.318593
101311.226628
101291.911614
101317.290232
101313.522994
101294.952809
101309.433251
101313.522994
101292.947032
101294.952809
101301.318264
101301.318264
101305.277978
101317.290232
101294.952809
101297.802913
101324.478176
101322.945494
101309.433251
101297.802913
101291.911614
101301.318264
101305.277978
101317.290232
101320.498256
101297.802913
101322.945494
101297.802913
101292.947032
101305.277978
101292.947032
101320.498256
101320.498256
101325.000000
101322.945494
101324.478176
101291.911614
101291.911614
101320.498256
101325.000000
101309.433251
101317.290232
101305.277978
101324.478176
101294.952808
101301.318264
101292.947032
101313.522994
101322.945494
101324.478176
101309.433251
101313.522994
101277.707921
101313.980697
101302.750988
101291.152518
101296.811999
101324.254176
101308.596315
101279.187808
101325.000000
101308.596315
101302.750988
101282.054594
101286.128150
101277.707921
101286.128150
101296.811999
101291.152518
101282.054594
101291.152518
101318.565814
101313.980697
101282.054594
101322.063566
101302.750988
101296.811999
101277.707921
101296.811999
101322.063566
101279.187808
101325.000000
101279.187808
101313.980697
101286.128150
101324.254176
101318.565814
101277.707921
101318.565814
101322.063566
101286.128150
101318.565814
101279.187808
101282.054594
101324.254176
101313.980697
101308.596315
101324.254176
101291.152518
101322.063566
101302.750988
101308.596315
101285.291156
101315.747630
101311.226628
101288.940844
101306.318593
101311.226628
101286.533744
101296.579926
101288.940844
101301.331915
101296.579926
101315.747630
101288.940844
101322.534420
101324.373768
101306.318593
101292.361210
101292.361210
101285.291156
101296.579926
101301.331915
101292.361210
101315.747630
101292.361210
101322.534420
101319.597529
101286.533744
101286.533744
101301.331915
101319.597529
101319.597529
101322.534420
101325.000000
101324.373768
101319.597529
101285.291156
101285.291156
101325.000000
101315.747630
101306.318593
101301.331915
101288.940844
101324.373768
101296.579926
101286.533744
101311.226628
101322.534420
101324.373768
101306.318593
101311.226628
101269.120404
101311.979760
101298.710908
101285.006334
101291.693490
101324.118745
101305.617657
101270.869015
101325.000000
101305.617657
101298.710908
101279.069617
101291.693490
101285.006334
101274.256366
101269.120404
101279.069617
101274.256366
101285.006334
101311.979760
101274.256366
101317.397464
101321.530354
101269.120404
101298.710908
101291.693490
101291.693490
101321.530354
101270.869015
101325.000000
101270.869015
101311.979760
101279.069617
101317.397464
101324.118745
101269.120404
101279.069617
101317.397464
101321.530354
101317.397464
101274.256366
101270.869015
101311.979760
101324.118745
101305.617657
101285.006334
101324.118745
101321.530354
101298.710908
101305.617657
101277.707921
101308.596315
101313.980697
101282.054594
101302.750988
101308.596315
101279.187808
101291.152518
101296.811999
101282.054594
101313.980697
101291.152518
101282.054594
101322.063566
101302.750988
101324.254176
101286.128150
101286.128150
101277.707921
101286.128150
101291.152518
101296.811999
101313.980697
101286.128150