# vtk DataFile Version 3.0
Time Step 116, Physical Time = 0.001160s, Residual = 3.13e-03
ASCII
DATASET UNSTRUCTURED_GRID
POINTS 5000 float
0.318712 0.385257 0.000000
-0.318712 0.385257 0.000000
-0.318712 -0.385257 0.000000
0.318712 -0.385257 0.000000
0.093691 0.491144 0.000000
-0.093691 0.491144 0.000000
-0.093691 -0.491144 0.000000
0.093691 -0.491144 0.000000
0.404508 0.293893 0.000000
-0.404508 0.293893 0.000000
-0.404508 -0.293893 0.000000
0.404508 -0.293893 0.000000
0.438153 0.240877 0.000000
-0.438153 0.240877 0.000000
-0.438153 -0.240877 0.000000
0.438153 -0.240877 0.000000
0.500000 0.000000 0.000000
-0.500000 -0.000000 0.000000
0.364484 0.342274 0.000000
-0.364484 0.342274 0.000000
-0.364484 -0.342274 0.000000
0.364484 -0.342274 0.000000
0.496057 0.062667 0.000000
-0.496057 0.062667 0.000000
-0.496057 -0.062667 0.000000
0.496057 -0.062667 0.000000
0.212890 0.452414 0.000000
-0.212890 0.452414 0.000000
-0.212890 -0.452414 0.000000
0.212890 -0.452414 0.000000
0.154508 0.475528 0.000000
-0.154508 0.475528 0.000000
-0.154508 -0.475528 0.000000
0.154508 -0.475528 0.000000
0.267913 0.422164 0.000000
-0.267913 0.422164 0.000000
-0.267913 -0.422164 0.000000
0.267913 -0.422164 0.000000
0.031395 0.499013 0.000000
-0.031395 0.499013 0.000000
-0.031395 -0.499013 0.000000
0.031395 -0.499013 0.000000
0.464888 0.184062 0.000000
-0.464888 0.184062 0.000000
-0.464888 -0.184062 0.000000
0.464888 -0.184062 0.000000
0.484292 0.124345 0.000000
-0.484292 0.124345 0.000000
-0.484292 -0.124345 0.000000
0.484292 -0.124345 0.000000
-0.031454 0.499951 0.000000
0.438977 0.241329 0.000000
-0.268417 0.422957 0.000000
0.365169 0.342917 0.000000
-0.496990 -0.062784 0.000000
0.319311 -0.385981 0.000000
0.405269 0.294445 0.000000
-0.093867 0.492067 0.000000
0.500940 -0.000000 0.000000
-0.213290 0.453264 0.000000
-0.154799 0.476422 0.000000
0.031454 0.499951 0.000000
0.465762 0.184408 0.000000
0.319311 0.385981 0.000000
0.365169 -0.342917 0.000000
0.405269 -0.294445 0.000000
-0.365169 0.342917 0.000000
-0.319311 0.385981 0.000000
0.268417 0.422957 0.000000
0.213290 0.453264 0.000000
-0.319311 -0.385981 0.000000
0.154799 -0.476422 0.000000
-0.485202 -0.124579 0.000000
0.154799 0.476422 0.000000
0.268417 -0.422957 0.000000
0.093867 0.492067 0.000000
-0.031454 -0.499951 0.000000
-0.500940 0.000000 0.000000
0.438977 -0.241329 0.000000
-0.438977 -0.241329 0.000000
0.093867 -0.492067 0.000000
-0.485202 0.124579 0.000000
0.485202 0.124579 0.000000
-0.496990 0.062784 0.000000
0.213290 -0.453264 0.000000
0.031454 -0.499951 0.000000
0.496990 -0.062784 0.000000
0.465762 -0.184408 0.000000
-0.465762 -0.184408 0.000000
-0.213290 -0.453264 0.000000
-0.093867 -0.492067 0.000000
-0.405269 -0.294445 0.000000
0.496990 0.062784 0.000000
0.485202 -0.124579 0.000000
-0.154799 -0.476422 0.000000
-0.365169 -0.342917 0.000000
-0.465762 0.184408 0.000000
-0.438977 0.241329 0.000000
-0.405269 0.294445 0.000000
-0.268417 -0.422957 0.000000
-0.031523 0.501039 0.000000
0.439932 0.241854 0.000000
-0.269001 0.423877 0.000000
0.365964 0.343663 0.000000
-0.498071 -0.062921 0.000000
0.320005 -0.386820 0.000000
0.406150 0.295085 0.000000
-0.094071 0.493137 0.000000
0.502029 -0.000000 0.000000
-0.213754 0.454250 0.000000
-0.155136 0.477458 0.000000
0.031523 0.501039 0.000000
0.466775 0.184809 0.000000
0.365964 -0.343663 0.000000
0.406150 -0.295085 0.000000
0.320005 0.386820 0.000000
-0.365964 0.343663 0.000000
-0.320005 0.386820 0.000000
0.269001 0.423877 0.000000
0.213754 0.454250 0.000000
-0.320005 -0.386820 0.000000
0.155136 -0.477458 0.000000
-0.486257 -0.124850 0.000000
0.155136 0.477458 0.000000
0.269001 -0.423877 0.000000
0.094071 0.493137 0.000000
-0.031523 -0.501039 0.000000
-0.502029 0.000000 0.000000
0.439932 -0.241854 0.000000
-0.439932 -0.241854 0.000000
0.094071 -0.493137 0.000000
-0.486257 0.124850 0.000000
0.486257 0.124850 0.000000
-0.498071 0.062921 0.000000
0.213754 -0.454250 0.000000
0.031523 -0.501039 0.000000
0.466775 -0.184809 0.000000
0.498071 -0.062921 0.000000
-0.466775 -0.184809 0.000000
-0.213754 -0.454250 0.000000
-0.094071 -0.493137 0.000000
-0.406150 -0.295085 0.000000
0.498071 0.062921 0.000000
-0.155136 -0.477458 0.000000
0.486257 -0.124850 0.000000
-0.365964 -0.343663 0.000000
-0.466775 0.184809 0.000000
-0.439932 0.241854 0.000000
-0.406150 0.295085 0.000000
-0.269001 -0.423877 0.000000
-0.031604 0.502329 0.000000
0.441064 0.242477 0.000000
-0.269693 0.424969 0.000000
0.366906 0.344547 0.000000
-0.499353 -0.063083 0.000000
0.320829 -0.387816 0.000000
0.407196 0.295845 0.000000
-0.094313 0.494407 0.000000
0.503322 -0.000000 0.000000
-0.214304 0.455419 0.000000
-0.155535 0.478688 0.000000
0.031604 0.502329 0.000000
0.467977 0.185285 0.000000
0.366906 -0.344547 0.000000
0.407196 -0.295845 0.000000
0.320829 0.387816 0.000000
0.269693 0.424969 0.000000
-0.366906 0.344547 0.000000
-0.320829 0.387816 0.000000
0.214304 0.455419 0.000000
-0.320829 -0.387816 0.000000
0.155535 -0.478688 0.000000
-0.487509 -0.125171 0.000000
0.155535 0.478688 0.000000
0.269693 -0.424969 0.000000
-0.031604 -0.502329 0.000000
0.094313 0.494407 0.000000
-0.503322 0.000000 0.000000
0.441064 -0.242477 0.000000
-0.441064 -0.242477 0.000000
-0.487509 0.125171 0.000000
0.094313 -0.494407 0.000000
0.487509 0.125171 0.000000
-0.499353 0.063083 0.000000
0.214304 -0.455419 0.000000
0.031604 -0.502329 0.000000
0.467977 -0.185285 0.000000
0.499353 -0.063083 0.000000
-0.467977 -0.185285 0.000000
-0.214304 -0.455419 0.000000
-0.094313 -0.494407 0.000000
-0.407196 -0.295845 0.000000
0.499353 0.063083 0.000000
-0.155535 -0.478688 0.000000
0.487509 -0.125171 0.000000
-0.467977 0.185285 0.000000
-0.366906 -0.344547 0.000000
-0.441064 0.242477 0.000000
-0.407196 0.295845 0.000000
-0.269693 -0.424969 0.000000
-0.031700 0.503862 0.000000
0.442411 0.243217 0.000000
-0.270517 0.426266 0.000000
0.368026 0.345599 0.000000
-0.500877 -0.063276 0.000000
0.321809 -0.389000 0.000000
0.408439 0.296748 0.000000
-0.094601 0.495916 0.000000
0.504858 -0.000000 0.000000
-0.214958 0.456810 0.000000
-0.156010 0.480149 0.000000
0.031700 0.503862 0.000000
0.469405 0.185851 0.000000
0.368026 -0.345599 0.000000
0.408439 -0.296748 0.000000
0.321809 0.389000 0.000000
0.270517 0.426266 0.000000
-0.368026 0.345599 0.000000
-0.321809 0.389000 0.000000
0.214958 0.456810 0.000000
-0.321809 -0.389000 0.000000
0.156010 -0.480149 0.000000
0.270517 -0.426266 0.000000
-0.488997 -0.125553 0.000000
0.156010 0.480149 0.000000
-0.031700 -0.503862 0.000000
0.094601 0.495916 0.000000
-0.504858 0.000000 0.000000
0.442411 -0.243217 0.000000
-0.442411 -0.243217 0.000000
-0.488997 0.125553 0.000000
0.094601 -0.495916 0.000000
0.488997 0.125553 0.000000
-0.500877 0.063276 0.000000
0.214958 -0.456810 0.000000
0.031700 -0.503862 0.000000
0.469405 -0.185851 0.000000
0.500877 -0.063276 0.000000
-0.469405 -0.185851 0.000000
-0.214958 -0.456810 0.000000
-0.094601 -0.495916 0.000000
-0.408439 -0.296748 0.000000
-0.469405 0.185851 0.000000
0.500877 0.063276 0.000000
-0.156010 -0.480149 0.000000
0.488997 -0.125553 0.000000
-0.368026 -0.345599 0.000000
-0.442411 0.243217 0.000000
-0.408439 0.296748 0.000000
-0.270517 -0.426266 0.000000
-0.031815 0.505686 0.000000
0.444012 0.244098 0.000000
-0.271496 0.427809 0.000000
0.369358 0.346850 0.000000
-0.502691 -0.063505 0.000000
0.322974 -0.390408 0.000000
0.409918 0.297823 0.000000
-0.094943 0.497711 0.000000
0.506686 -0.000000 0.000000
-0.215736 0.458463 0.000000
-0.156575 0.481887 0.000000
0.031815 0.505686 0.000000
0.369358 -0.346850 0.000000
0.409918 -0.297823 0.000000
0.471105 0.186524 0.000000
0.322974 0.390408 0.000000
0.271496 0.427809 0.000000
-0.369358 0.346850 0.000000
-0.322974 0.390408 0.000000
0.215736 0.458463 0.000000
0.156575 -0.481887 0.000000
-0.322974 -0.390408 0.000000
0.271496 -0.427809 0.000000
-0.490768 -0.126008 0.000000
0.156575 0.481887 0.000000
-0.031815 -0.505686 0.000000
0.094943 0.497711 0.000000
-0.506686 0.000000 0.000000
0.444012 -0.244098 0.000000
-0.490768 0.126008 0.000000
-0.444012 -0.244098 0.000000
0.094943 -0.497711 0.000000
0.490768 0.126008 0.000000
-0.502691 0.063505 0.000000
0.215736 -0.458463 0.000000
0.031815 -0.505686 0.000000
0.471105 -0.186524 0.000000
-0.471105 -0.186524 0.000000
0.502691 -0.063505 0.000000
-0.215736 -0.458463 0.000000
-0.094943 -0.497711 0.000000
-0.409918 -0.297823 0.000000
-0.471105 0.186524 0.000000
0.502691 0.063505 0.000000
-0.156575 -0.481887 0.000000
0.490768 -0.126008 0.000000
-0.369358 -0.346850 0.000000
-0.444012 0.244098 0.000000
-0.409918 0.297823 0.000000
-0.271496 -0.427809 0.000000
-0.031952 0.507855 0.000000
0.445917 0.245145 0.000000
-0.272661 0.429644 0.000000
0.370943 0.348338 0.000000
-0.504847 -0.063777 0.000000
0.324359 -0.392083 0.000000
0.411676 0.299100 0.000000
-0.095351 0.499846 0.000000
0.508859 -0.000000 0.000000
-0.216662 0.460430 0.000000
-0.157246 0.483954 0.000000
0.031952 0.507855 0.000000
0.370943 -0.348338 0.000000
0.411676 -0.299100 0.000000
0.324359 0.392083 0.000000
0.473126 0.187324 0.000000
0.272661 0.429644 0.000000
-0.370943 0.348338 0.000000
-0.324359 0.392083 0.000000
0.216662 0.460430 0.000000
0.157246 -0.483954 0.000000
-0.324359 -0.392083 0.000000
0.272661 -0.429644 0.000000
0.157246 0.483954 0.000000
-0.492873 -0.126548 0.000000
-0.031952 -0.507855 0.000000
0.095351 0.499846 0.000000
0.445917 -0.245145 0.000000
-0.508859 0.000000 0.000000
-0.492873 0.126548 0.000000
-0.445917 -0.245145 0.000000
0.095351 -0.499846 0.000000
-0.504847 0.063777 0.000000
0.216662 -0.460430 0.000000
0.492873 0.126548 0.000000
0.031952 -0.507855 0.000000
0.473126 -0.187324 0.000000
-0.473126 -0.187324 0.000000
0.504847 -0.063777 0.000000
-0.216662 -0.460430 0.000000
-0.095351 -0.499846 0.000000
-0.473126 0.187324 0.000000
-0.411676 -0.299100 0.000000
-0.157246 -0.483954 0.000000
0.504847 0.063777 0.000000
0.492873 -0.126548 0.000000
-0.370943 -0.348338 0.000000
-0.445917 0.245145 0.000000
-0.411676 0.299100 0.000000
-0.272661 -0.429644 0.000000
0.318712 0.385257 0.100000
-0.318712 0.385257 0.100000
[...]
POINT_DATA 5000
SCALARS pressure float 1
LOOKUP_TABLE default
101775.863207
101775.863207
101775.863207
101775.863207
101775.863207
101775.863207
101775.863207
101775.863207
101775.863207
101775.863207
101775.863207
101775.863207
101775.863207
101775.863207
101775.863207
101775.863207
101325.000000
101325.000000
101325.000000
101325.000000
101325.000000
101325.000000
101325.000000
101325.000000
101325.000000
101325.000000
101325.000000
101325.000000
101325.000000
101325.000000
101325.000000
101325.000000
101325.000000
101325.000000
101325.000000
101325.000000
101325.000000
101325.000000
101325.000000
101325.000000
101325.000000
101325.000000
101325.000000
101325.000000
101325.000000
101325.000000
101325.000000
101325.000000
101325.000000
101325.000000
101323.653510
101324.686261
101324.036302
101324.366531
101324.978765
101324.197437
101324.532958
101323.695645
101325.000000
101323.893249
101323.777267
101323.653510
101324.816807
101324.197437
101324.366531
101324.532958
101324.366531
101324.197437
101324.036302
101323.893249
101324.197437
101323.777267
101324.916394
101323.777267
101324.036302
101323.695645
101323.653510
101325.000000
101324.686261
101324.686261
101323.695645
101324.916394
101324.916394
101324.978765
101323.893249
101323.653510
101324.978765
101324.816807
101324.816807
101323.893249
101323.695645
101324.532958
101324.978765
101324.916394
101323.777267
101324.366531
101324.816807
101324.686261
101324.532958
101324.036302
101322.101608
101324.324659
101322.925588
101323.636424
101324.954291
101323.272441
101323.994667
101322.192306
101325.000000
101322.617659
101322.368003
101322.101608
101324.605668
101323.636424
101323.994667
101323.272441
101323.636424
101323.272441
101322.925588
101322.617659
101323.272441
101322.368003
101324.820035
101322.368003
101322.925588
101322.192306
101322.101608
101325.000000
101324.324659
101324.324659
101322.192306
101324.820035
101324.820035
101324.954291
101322.617659
101322.101608
101324.605668
101324.954291
101324.605668
101322.617659
101322.192306
101323.994667
101324.954291
101322.368003
101324.820035
101323.636424
101324.605668
101324.324659
101323.994667
101322.925588
101320.273445
101323.898688
101321.617150
101322.776347
101324.925459
101322.182781
101323.360552
101320.421351
101325.000000
101321.114995
101320.707868
101320.273445
101324.356942
101322.776347
101323.360552
101322.182781
101321.617150
101322.776347
101322.182781
101321.114995
101322.182781
101320.707868
101324.706521
101320.707868
101321.617150
101320.273445
101320.421350
101325.000000
101323.898688
101323.898688
101324.706521
101320.421350
101324.706521
101324.925459
101321.114995
101320.273445
101324.356942
101324.925459
101324.356942
101321.114995
101320.421350
101323.360552
101324.925459
101320.707868
101324.706521
101324.356942
101322.776347
101323.898688
101323.360552
101321.617150
101318.118578
101323.396592
101320.074887
101321.762569
101324.891476
101320.898393
101322.613116
101318.333915
101325.000000
101319.343797
101318.751058
101318.118578
101324.063768
101321.762569
101322.613116
101320.898393
101320.074887
101321.762569
101320.898393
101319.343797
101320.898393
101318.751058
101320.074887
101324.572722
101318.751058
101318.118578
101318.333915
101325.000000
101323.396592
101323.396592
101324.572722
101318.333915
101324.572722
101324.891476
101319.343797
101318.118578
101324.063768
101324.891476
101324.063768
101319.343797
101318.333915
101322.613116
101324.063768
101324.891476
101318.751058
101324.572722
101321.762569
101323.396592
101322.613116
101320.074887
101315.580998
101322.805323
101318.258713
101320.568740
101324.851457
101319.385892
101321.732934
101315.875742
101325.000000
101317.258026
101316.446710
101315.580998
101320.568740
101321.732934
101323.718525
101319.385892
101318.258713
101320.568740
101319.385892
101317.258026
101316.446710
101319.385892
101318.258713
101324.415160
101316.446710
101315.580998
101315.875742
101325.000000
101322.805323
101324.415160
101322.805323
101315.875742
101324.415160
101324.851457
101317.258026
101315.580998
101323.718525
101323.718525
101324.851457
101317.258026
101315.875742
101321.732934
101323.718525
101324.851457
101316.446710
101324.415160
101320.568740
101322.805323
101321.732934
101318.258713
101312.598854
101322.110468
101316.124358
101319.165762
101324.804427
101317.608413
101320.698550
101312.986917
101325.000000
101314.806845
101313.738659
101312.598854
101319.165762
101320.698550
101317.608413
101323.312798
101316.124358
101319.165762
101317.608413
101314.806845
101313.738659
101317.608413
101316.124358
101313.738659
101324.229995
101312.598854
101312.986917
101322.110468
101325.000000
101324.229995
101322.110468
101312.986917
101324.804427
101314.806845
101324.229995
101312.598854
101323.312798
101323.312798
101324.804427
101314.806845
101312.986917
101323.312798
101320.698550
101313.738659
101324.804427
101324.229995
101319.165762
101322.110468
101320.698550
101316.124358
101775.863207
101775.863207
101775.863207
101775.863207
101775.863207
101775.863207
101775.863207
101775.863207
101775.863207
101775.863207
101775.863207
101775.863207
101775.863207
101775.863207
101775.863207
101775.863207
101325.000000
101325.000000
101325.000000
101325.000000
101325.000000
101325.000000
101325.000000
101325.000000
101325.000000
101325.000000
101325.000000
101325.000000
101325.000000
101325.000000
101325.000000
101325.000000
101325.000000
101325.000000
101325.000000
101325.000000
101325.000000
101325.000000
101325.000000
101325.000000
101325.000000
101325.000000
101325.000000
101325.000000
101325.000000
101325.000000
101325.000000
101325.000000
101325.000000
101325.000000
101323.653510
101324.686261
101323.695645
101324.532958
101324.532958
101323.777267
101324.366531
101323.777267
101324.036302
101323.893249
101324.036302
101324.197437
101324.686261
101323.653510
101324.978765
101323.777267
101324.366531
101324.816807
101324.916394
101323.893249
101324.197437
101323.695645
101324.197437
101324.036302
101324.916394
101324.686261
101325.000000
101323.893249
101324.916394
101323.695645
101323.893249
101324.816807
101324.816807
101325.000000
101324.978765
101324.366531
101323.653510
101323.653510
101324.197437
101324.978765
101324.686261
101324.816807
101324.532958
101324.978765
101323.777267
101323.695645
101324.036302
101324.916394
101324.366531
101324.532958
101309.103796
101321.296101
101317.521478
101313.622904
101324.749307
101315.525216
101319.486258
101309.601227
101325.000000
101311.934072
101310.564835
101309.103795
101317.521478
101319.486258
101315.525216
101322.837288
101313.622904
101311.934072
101317.521478
101315.525216
101310.564835
101315.525216
101313.622904
101310.564835
101324.012981
101309.103795
101309.601227
101321.296101
101325.000000
101324.012981
101321.296101
101309.601227
101311.934072
101324.749307
101324.012981
101309.103795
101322.837288
101322.837288
101324.749307
101311.934072
101322.837288
101309.601227
101319.486258
101310.564835
101324.749307
101324.012981
101317.521478
101321.296101
101319.486258
101313.622904
101322.101608
101324.324659
101322.192306
101323.994667
101323.994667
101323.636424
101322.368003
101322.368003
101322.925588
101322.617659
101322.925588
101323.272441
101324.324659
101322.101608
101324.954291
101322.368003
101323.636424
101324.605668
101324.820035
101322.617659
101323.272441
101322.192306
101323.272441
101322.925588
101324.820035
101324.324659
101322.617659
101325.000000
101324.820035
101322.192306
101322.617659
101324.605668
101324.605668
101324.954291
101325.000000
101323.636424
101322.101608
101322.101608
101323.272441
101324.954291
101324.324659
101324.605668
101323.994667
101324.954291
101322.368003
101322.192306
101322.925588
101324.820035
101323.636424
101323.994667
101320.273445
101323.898688
101320.421350
101323.360552
101323.360552
101322.776347
101320.707868
101320.707868
101321.617150
101321.114995
101321.617150
101322.182781
101323.898688
101324.925459
101320.273445
101320.707868
101322.776347
101324.706521
101324.356942
101321.114995
101322.182781
101320.421350
101322.182781
101321.617150
101324.706521
101323.898688
101321.114995
101325.000000
101324.706521
101320.421350
101321.114995
101324.356942
101324.356942
101324.925459
101325.000000
101322.776347
101320.273445
101320.273445
101322.182781
101324.925459
101323.898688
101324.356942
101323.360552
101324.925459
101320.707868
101320.421350
101321.617150
101324.706521
101322.776347
101323.360552
101305.017223
101320.343908
101315.598911
101310.698098
101324.684860
101313.089453
101318.068793
101305.642533
101325.000000
101308.575103
101306.853864
101305.017223
101318.068793
101315.598911
101313.089453
101322.281301
101310.698097
101308.575103
101315.598911
101313.089453
101306.853864
101310.698097
101313.089453
101306.853864
101323.759240
101305.017223
101320.343908
101305.642533
101325.000000
101323.759240
101320.343908
101305.642533
101308.575103
101324.684860
101323.759240
101305.017223
101322.281301
101322.281301
101324.684860
101308.575103
101322.281301
101305.642533
101318.068793
101306.853864
101324.684860
101320.343908
101323.759240
101315.598911
101310.698097
101318.068793
101318.118578
101323.396592
101318.333915
101322.613116
101322.613116
101321.762569
101318.751058
101318.751058
101320.074887
101320.074887
101319.343797
101320.898393
101323.396592
101324.891476
101318.118578
101318.751058
101321.762569
101324.572722
101324.063768
101319.343797
101320.898393
101318.333915
101320.898393
101320.074887
101324.572722
101323.396592
101319.343797
101325.000000
101324.572722
101318.333915
101319.343797
101324.063768
101324.063768
101324.891476
101325.000000
101321.762569
101318.118578
101318.118578
101320.898393
101324.891476
101323.396592
101324.063768
101322.613116
101324.891476
101318.751058
101318.333915
101320.074887
101324.572722
101321.762569
101322.613116
101315.580998
101322.805323
101321.732934
101315.875742
101321.732934
101320.568740
101316.446710
101316.446710
101318.258713
101318.258713
101317.258026
101319.385892
101322.805323
101324.851457
101316.446710
101315.580998
101320.568740
101324.415160
101317.258026
101323.718525
101319.385892
101315.875742
101318.258713
101319.385892
101324.415160
101322.805323
101317.258026
101325.000000
101315.875742
101324.415160
101317.258026
101323.718525
101323.718525
101324.851457
101325.000000
101320.568740
101315.580998
101315.580998
101319.385892
101324.851457
101322.805323
101323.718525
101321.732934
101316.446710
101315.875742
101324.851457
101318.258713
101324.415160
101320.568740
101321.732934
101300.247751
101319.232596
101313.355067
101307.284532
101324.609642
101310.246654
101316.414458
101301.022310
101325.000000
101304.654823
101302.522760
101300.247751
101316.414458
101313.355067
101310.246654
101307.284532
101321.632405
101304.654823
101313.355067
101310.246654
101302.522760
101307.284532
101310.246654
101302.522760
101323.463097
101300.247751
101319.232596
101301.022310
101325.000000
101323.463097
101301.022310
101319.232596
101304.654823
101324.609642
101323.463097
101300.247751
101321.632405
101321.632405
101321.632405
101304.654823
101324.609642
101301.022310
101302.522760
101316.414458
101324.609642
101319.232596
101323.463097
101313.355067
101307.284532
101316.414458
101312.598854
101322.110468
101320.698550
101312.986917
101320.698550
101319.165762
101313.738659
101313.738659
101316.124358
101316.124358
101314.806845
101317.608413
101322.110468
101324.804427
101313.738659
101312.598854
101319.165762
101324.229995
101314.806845
101323.312798
101317.608413
101316.124358
101312.986917
101317.608413
101324.229995
101322.110468
101314.806845
101325.000000
101312.986917
101324.229995
101314.806845
101323.312798
101323.312798
101324.804427
101325.000000
101319.165762
101312.598854
101312.598854
101317.608413
101323.312798
101322.110468
101324.804427
101320.698550
101313.738659
101312.986917
101316.124358
101324.804427
101324.229995
101319.165762
101320.698550
101309.103795
101321.296101
101319.486258
101319.486258
101317.521478
101309.601227
101310.564835
101310.564835
101313.622904
101313.622904
101311.934072
101315.525216
101321.296101
101324.749307
101310.564835
101309.103795
101317.521478
101324.012981
101311.934072
101322.837288
101315.525216
101313.622904
101309.601227
101324.012981
101321.296101
101315.525216
101311.934072
101309.601227
101325.000000
101311.934072
101324.012981
101322.837288
101322.837288
101324.749307
101325.000000
101309.103795
101317.521478
101309.103795
101315.525216
101322.837288
101321.296101
101324.749307
101319.486258
101310.564835
101309.601227
101313.622904
101324.749307
101324.012981
101317.521478
101319.486258
101294.715240
101317.943492
101310.752244
101303.324851
101324.522391
101306.949052
101314.495457
101295.662925
101325.000000
101300.107361
101297.498749
101294.715240
101314.495457
101310.752244
101306.949052
101303.324850
101300.107361
101320.879695
101297.498749
101310.752244
101306.949052
101303.324850
101297.498749
101306.949052
101323.119575
101317.943492
101294.715240
101295.662925
101325.000000
101323.119575
101295.662925
101317.943492
101300.107361
101324.522391
101323.119575
101294.715240
101320.879695
101320.879695
101320.879695
101300.107361
101324.522391
101295.662925
101297.498749
101314.495457
101317.943492
101324.522391
101323.119575
101310.752244
101303.324850
101314.495457
101305.017223
101320.343908
101318.068793
101318.068793
101315.598911
101306.853864
101305.642533
101306.853864
101310.698097
101310.698097
101313.089453
101308.575103
101320.343908
101306.853864
101324.684860
101305.017223
101315.598911
101323.759240
101308.575103
101322.281301
101313.089453
101310.698097
101305.642533
101320.343908
101323.759240
101313.089453
101308.575103
101305.642533
101308.575103
101325.000000
101323.759240
101322.281301
101322.281301
101324.684860
101325.000000
101305.017223
101305.017223
101315.598911
101322.281301
101313.089453
101320.343908
101324.684860
101318.068793
101306.853864
101305.642533
101310.698097
101323.759240
101324.684860
101315.598911
101318.068793
101288.328765
101316.455409
101307.747665
101298.753977
101324.421673
101303.142454
101312.280250
101289.476299
101325.000000
101291.699263
101294.857980
101288.328765
101312.280250
101307.747665
101303.142454
101298.753977
101294.857980
101320.010802
101291.699263
101298.753977
101307.747665
101303.142454
101291.699263
101322.723029
101316.455409
101303.142454
101288.328765
101289.476299
101322.723029
101325.000000
101289.476299
101316.455409
101294.857980
101324.421673
101288.328765
101322.723029
101320.010802
101320.010802
101320.010802
101294.857980
101289.476299
101324.421673
101291.699263
101312.280250
101316.455409
101324.421673
101322.723029
101307.747665
101298.753977
101312.280250
101300.247751
101319.232596
101316.414458
101316.414458
101313.355067
101302.522760
101301.022310
101302.522760
101307.284532
101307.284532
101310.246654
101304.654823
101319.232596
101302.522760
101324.609642
101313.355067
101323.463097
101300.247751
101304.654823
101321.632405
101310.246654
101307.284532
101319.232596
101301.022310
101323.463097
101304.654823
101310.246654
101304.654823
101301.022310
101325.000000
101323.463097
101321.632405
101321.632405
101324.609642
101325.000000
101300.247751
101300.247751
101313.355067
101321.632405
101310.246654
101319.232596
101324.609642
101302.522760
101316.414458
101301.022310
101307.284532
101323.463097
101324.609642
101313.355067
101316.414458
101294.715240
101317.943492
101314.495457
101297.498749
101310.752244
101314.495457
101295.662925
101297.498749
101303.324851
101303.324851
101306.949052
101317.943492
101300.107361
101297.498749
101324.522391
101310.752244
101323.119575
101294.715240
101300.107361
101306.949052
101303.324850
101320.879695
101317.943492
101295.662925
101323.119575
101300.107361
101300.107361
101306.949052
101295.662925
101325.000000
101323.119575
101320.879695
101320.879695
101324.522391
101294.715240
101294.715240
101325.000000
101320.879695
101310.752244
101306.949052
101317.943492
101324.522391
101297.498749
101303.324850
101295.662925
101314.495457
101323.119575
101324.522391
101310.752244
101314.495457
101280.991435
101314.745773
101304.295748
101293.502566
101298.769107
101324.305959
101309.735231
101282.368572
101325.000000
101285.036316
101288.827043
101309.735231
101280.991435
101304.295748
101298.769107
101288.827043
101293.502566
101319.012543
101285.036316
101293.502566
101285.036316
101304.295748
101314.745773
101298.769107
101322.267444
101280.991435
101298.769107
101282.368572
101322.267444
101325.000000
101282.368572
101314.745773
101288.827043
101324.305959
101280.991435
101322.267444
101319.012543
101319.012543
101319.012543
101288.827043
101282.368572
101285.036316
101324.305959
101314.745773
101309.735231
101324.305959
101322.267444
101293.502566
101304.295748
101309.735231
101288.328765
101316.455409
101312.280250
101291.699263
101307.747665
101312.280250
101289.476299
101291.699263
101298.753977
101298.753977
101303.142454
101316.455409
101291.699263
101294.857980
101324.421673
101322.723029
101307.747665
101294.857980
101288.328765
101298.753977
101303.142454
101316.455409
101320.010802
101294.857980
101322.723029
101294.857980
101289.476299
101303.142454
101289.476299
101320.010802
101320.010802
101325.000000
101322.723029
101324.421673
101288.328765
101288.328765
101320.010802
101325.000000
101307.747665
101316.455409
101303.142454
101324.421673
101291.699263
101298.753977
101289.476299
101312.280250
101322.723029
101324.421673
101307.747665
101312.280250
101272.587079
101312.787514
101300.341838
101287.487473
101293.759769
101324.173417
101306.820104
101274.227209
101325.000000
101306.820104
101300.341838
101277.404415
101281.919060
101272.587079
101281.919060
101293.759769
101287.487472
101277.404415
101287.487472
101317.869112
101312.787514
101277.404415
101321.745605
101300.341838
101293.759769
101272.587079
101293.759769
101321.745605
101274.227209
101325.000000
101274.227209
101312.787514
101281.919060
101324.173417
101317.869112
101272.587079
101317.869112
101321.745605
101281.919060
101317.869112
101274.227209
101277.404415
101324.173417
101312.787514
101306.820104
101324.173417
101287.487472
101321.745605
101300.341838
101306.820104
101280.991435
101314.745773
101309.735231
101285.036316
101304.295748
101309.735231
101282.368572
101293.502566
101285.036316
101298.769107
101293.502566
101314.745773
101285.036316
101322.267444
101324.305959
101304.295748
101288.827043
101288.827043
101280.991435
101293.502566
101298.769107
101288.827043
101314.745773
101288.827043
101322.267444
101319.012543
101282.368572
101282.368572
101298.769107
101319.012543
101319.012543
101322.267444
101325.000000
101324.305959
101319.012543
101280.991435
101280.991435
101325.000000
101314.745773
101304.295748
101298.769107
101285.036316
101324.305959
101293.502566
101282.368572
101309.735231
101322.267444
101324.305959
101304.295748
101309.735231
101263.069695
101310.569913
101295.864294
101280.675772
101288.087022
101324.023322
101303.518914
101265.007648
101325.000000
101303.518914
101295.864294
101274.096221
101288.087022
101280.675772
101268.761785
101263.069695
101274.096221
101268.761785
101280.675772
101310.569913
101268.761785
101316.574252
101321.154657
101263.069695
101295.864294
101288.087022
101288.087022
101321.154657
101265.007648
101325.000000
101265.007648
101310.569913
101274.096221
101316.574252
101324.023322
101263.069695
101274.096221
101316.574252
101321.154657
101316.574252
101268.761785
101265.007648
101310.569913
101324.023322
101303.518913
101280.675772
101324.023322
101321.154657
101295.864294
101303.518913
101272.587079
101306.820104
101312.787514
101277.404415
101300.341838
101306.820104
101274.227209
101287.487472
101293.759769
101277.404415
101312.787514
101287.487472
101277.404415
101321.745605
101300.341838
101324.173417
101281.919060
101281.919060
101272.587079
101281.919060
101287.487472
101293.759769
101312.787514
101281.919060