/*--------------------------------*- C++ -*----------------------------------*\
| =========                 |                                                 |
| \\      /  F ield         | OpenFOAM: The Open Source CFD Toolbox           |
|  \\    /   O peration     | Version:  2406                                  |
|   \\  /    A nd           | Website:  www.openfoam.com                      |
|    \\/     M anipulation  |                                                 |
\*---------------------------------------------------------------------------*/
FoamFile
{
    version     2.0;
    format      ascii;
    arch        "LSB;label=32;scalar=64";
    class       volScalarField;
    location    "50";
    object      p;
}
// * * * * * * * * * * * * * * * * * * * * * * * * * * * * * * * * * * * * * //

dimensions      [0 2 -2 0 0 0 0];

internalField   nonuniform List<scalar> 
11524
(
-0.14573169
-0.21854433
-0.40141657
-0.6888231
-1.073248
-1.5538666
-2.1307376
-2.7988508
-3.5457607
-4.3501851
-5.1808776
-5.9962458
-6.7429902
-7.3640334
-7.8046919
-8.0249156
-8.0094561
-7.7700408
-7.3452378
-6.7910826
-6.1615528
-5.5037209
-4.8522231
-4.2299383
-3.6513129
-3.1243167
-2.6517688
-2.2323143
-1.8624713
-1.5381523
-1.2559363
-1.0129452
-0.80647707
-0.63327652
-0.48929629
-0.36986239
-0.27011801
-0.18581398
-0.11315786
-0.054234005
-0.071546839
-0.14396849
-0.32533357
-0.61117163
-0.99557628
-1.4782608
-2.0606315
-2.7389153
-3.5023581
-4.3313231
-5.195009
-6.0496009
-6.8388962
-7.4990437
-7.9672309
-8.1979301
-8.1723089
-7.9048862
-7.4419711
-6.8481976
-6.1848852
-5.5016095
-4.8324181
-4.1988592
-3.614008
-3.0847991
-2.6126613
-2.1950415
-1.8274254
-1.5054176
-1.2256191
-0.9854703
-0.7824387
-0.61324416
-0.47362587
-0.35851061
-0.2627481
-0.18180968
-0.11178913
-0.054356966
0.076566792
0.0051991075
-0.17364859
-0.45604438
-0.83791056
-1.3224317
-1.9147883
-2.6135761
-3.4105491
-4.288916
-5.2196528
-6.1550665
-7.0345788
-7.7780284
-8.3056582
-8.5588855
-8.5109264
-8.182186
-7.6387047
-6.9607868
-6.2273301
-5.492595
-4.788468
-4.1328663
-3.536245
-3.0031137
-2.5322407
-2.1183766
-1.7551693
-1.4375403
-1.1623577
-0.92762082
-0.7311295
-0.56947567
-0.43782596
-0.33037631
-0.24130362
-0.16570493
-0.099726787
-0.046289613
0.29751457
0.22823984
0.054148552
-0.22204621
-0.59870265
-1.0830581
-1.6839367
-2.4092877
-3.2559241
-4.2089915
-5.2426583
-6.3115806
-7.3364119
-8.2192907
-8.8482103
-9.1406915
-9.0534309
-8.6167243
-7.9324736
-7.118471
-6.2759984
-5.4647513
-4.7104507
-4.0243874
-3.4127686
-2.8764119
-2.4097558
-2.0033444
-1.6482463
-1.3387465
-1.0724654
-0.84834567
-0.66457787
-0.51726689
-0.40044634
-0.30697752
-0.22981697
-0.16324453
-0.10291873
-0.050412981
0.58929898
0.5234147
0.3574591
0.09199679
-0.27426033
-0.75296217
-1.3594923
-2.1090497
-3.0157845
-4.0686079
-5.246545
-6.506111
-7.7527441
-8.8542578
-9.6472882
-10.003748
-9.8485801
-9.2305249
-8.3208543
-7.3023281
-6.3088075
-5.3980415
-4.5811839
-3.8586989
-3.2310302
-2.6936025
-2.2340428
-1.8369697
-1.4903847
-1.1888405
-0.93178238
-0.71998869
-0.55216532
-0.42357559
-0.32648056
-0.25164507
-0.19046239
-0.13617733
-0.084484913
-0.038273323
0.94841307
0.88795138
0.73492263
0.48757991
0.14052662
-0.32229497
-0.92484651
-1.6946425
-2.6603699
-3.832757
-5.1995969
-6.721256
-8.2887173
-9.7295885
-10.78867
-11.242977
-10.964814
-10.055665
-8.7937439
-7.4822096
-6.2944631
-5.2680978
-4.3846717
-3.6293671
-2.9959808
-2.4715609
-2.0327109
-1.6553134
-1.3240866
-1.0351868
-0.79154908
-0.59667985
-0.44994562
-0.34530151
-0.27258621
-0.22005923
-0.1771252
-0.13595098
-0.092070922
-0.04666523
1.3694763
1.3169459
1.1833177
0.96435715
0.65017491
0.21870012
-0.36198847
-1.1333656
-2.1416074
-3.4396721
-5.042056
-6.9148034
-8.9588807
-10.913991
-12.396408
-13.006553
-12.510604
-11.111232
-9.3110157
-7.5958189
-6.1719171
-5.0169176
-4.0602953
-3.271003
-2.6382146
-2.1372284
-1.7290668
-1.3786243
-1.0687161
-0.79898524
-0.57717873
-0.40910066
-0.29335872
-0.22093313
-0.17780888
-0.14922976
-0.12260532
-0.090091323
-0.049269956
-0.0091556389
1.8442688
1.8029151
1.6968122
1.5193177
1.2568701
0.88177999
0.3526675
-0.38612564
-1.4089518
-2.8050884
-4.6683104
-7.0091752
-9.7324476
-12.500083
-14.692426
-15.553225
-14.65436
-12.419858
-9.8043887
-7.579188
-5.9268612
-4.6778892
-3.6769287
-2.8790581
-2.2695684
-1.806552
-1.4322502
-1.1051694
-0.81360726
-0.5673219
-0.38105128
-0.2615934
-0.20324496
-0.18986211
-0.20055963
-0.21524604
-0.21880674
-0.20272212
-0.16349696
-0.097389629
2.3615075
2.3348038
2.2654425
2.1450913
1.9576643
1.6722662
1.2399456
0.58773061
-0.38839628
-1.833897
-3.9258137
-6.8398051
-10.524929
-14.603336
-18.039159
-19.319788
-17.624581
-13.900323
-10.000791
-7.1233352
-5.2726348
-3.9897944
-3.0072655
-2.2700913
-1.7440526
-1.3494386
-1.0050218
-0.67403751
-0.3665356
-0.11491539
0.053577208
0.13155369
0.13297255
0.085908171
0.022533766
-0.028941269
-0.049559959
-0.031594762
0.017793163
0.064465647
2.9059724
2.8976425
2.8743957
2.8278509
2.7418706
2.5867738
2.3112071
1.8303658
1.0080226
-0.36781034
-2.6110125
-6.1321801
-11.16306
-17.385839
-23.113155
-25.126854
-21.887113
-15.629773
-9.9054108
-6.3505638
-4.3952538
-3.1313259
-2.2304729
-1.6564031
-1.321057
-1.0702814
-0.79291389
-0.47075149
-0.15428478
0.089225991
0.2149362
0.21576694
0.11766319
-0.034994137
-0.19459732
-0.32180144
-0.39033134
-0.38685663
-0.3059543
-0.15225823
3.4589535
3.4718899
3.5029654
3.5453943
3.587171
3.6063334
3.5597141
3.3640829
2.8646855
1.7822643
-0.3543437
-4.2973663
-11.086808
-21.026091
-31.137068
-34.10111
-27.219136
-16.317081
-8.2638065
-4.4990051
-2.8135674
-1.6887706
-0.93093493
-0.5906906
-0.49551823
-0.39673152
-0.16259523
0.18615678
0.54435556
0.80306196
0.89909366
0.8268284
0.6253269
0.35581795
0.080616759
-0.15050831
-0.30604694
-0.37066944
-0.33682058
-0.17702071
3.9982857
4.0343139
4.1244739
4.2660947
4.4559041
4.6887202
4.9451233
5.1702824
5.2327782
4.8364867
3.3706516
-0.4151546
-9.1482711
-25.509347
-45.511871
-50.493667
-35.604749
-15.7985
-4.5237622
-1.4783442
-0.77367566
-0.1429774
0.23608563
0.1828836
-0.046457286
-0.13903448
0.025080606
0.37432772
0.75352349
1.023314
1.1110918
1.015941
0.78719506
0.49539404
0.20790438
-0.025487517
-0.17732314
-0.23920158
-0.21348013
-0.098493398
4.5002858
4.5587786
4.7073404
4.9490212
5.2934473
5.7608633
6.3739917
7.1441059
8.0377785
8.883345
9.1007047
7.2270702
-2.5490002
-29.13788
-68.391249
-74.285321
-44.590685
-11.91205
2.1074896
3.3294962
2.5279432
2.2788703
2.0603922
1.5977439
1.109296
0.8446924
0.86158383
1.0520383
1.2521015
1.3346533
1.2489145
1.0158995
0.69974865
0.37548986
0.10532313
-0.073900447
-0.15173257
-0.13989322
-0.066318992
0.024635885
4.9413269
5.0192502
5.2181513
5.5475177
6.0311972
6.7188793
7.6880019
9.0523555
10.97586
13.678911
17.29995
21.800422
16.319699
-18.743902
-108.35211
-114.36222
-56.878098
-2.95535
11.932406
8.8418675
6.062328
4.2161816
3.0479032
2.279104
1.8136955
1.6183315
1.6107939
1.6528765
1.609534
1.404513
1.0394704
0.57665611
0.10479428
-0.29339638
-0.56255888
-0.6818032
-0.66172534
-0.53513985
-0.34595044
-0.14180657
5.3014761
5.392669
5.6263539
6.0165114
6.5974483
7.4416263
8.6722599
10.499096
13.300511
17.842219
25.320734
36.300824
60.566969
38.20657
-215.99852
-197.32355
-73.803888
40.663496
24.485
16.830606
11.670419
7.6615648
5.1254067
3.8162766
3.244537
3.0411532
2.9643773
2.8386268
2.5499667
2.0641366
1.4251943
0.7280665
0.080669837
-0.42855644
-0.74905382
-0.87172264
-0.82246559
-0.64974424
-0.4137429
-0.17930315
5.5666496
5.6632762
5.910664
6.3237133
6.9384773
7.8314199
9.1330104
11.066182
14.03413
18.851723
26.807936
43.583042
85.954283
321.86417
99.781154
38.387137
18.686198
12.932624
8.5989374
5.821721
4.3458487
3.6653747
3.3853437
3.2452143
3.0617978
2.7208184
2.1908177
1.5182634
0.79881447
0.13918049
-0.37480804
-0.69562294
-0.81734421
-0.76816261
-0.59845873
-0.36957853
-0.14338353
5.7315142
5.8250089
6.063927
6.4599586
7.0415754
7.869418
9.0403288
10.701644
13.078869
16.511599
21.398234
28.259979
42.07341
14.917399
-123.00511
-118.71543
-31.267464
30.677997
19.305926
13.230321
9.1567296
6.5500331
4.8216583
3.652104
2.9108367
2.5114668
2.3308091
2.2136999
2.0256545
1.6982464
1.2398755
0.71472576
0.20831017
-0.20357588
-0.4739095
-0.5899561
-0.56898311
-0.4485644
-0.27592009
-0.10003231
5.7991368
5.8824869
6.0941771
6.4405215
6.937415
7.6200318
8.536772
9.7404117
11.266297
13.060163
14.748278
15.185067
9.0373463
-12.592539
-47.679081
-52.354457
-24.743225
2.7336218
11.378909
9.4383097
7.0475676
5.8248608
4.8789718
3.8637322
2.9615225
2.3702577
2.1044771
2.0367857
2.0043371
1.8893833
1.649505
1.3076464
0.92326729
0.56197524
0.27441208
0.086461241
-0.00088426335
-0.0059949535
0.037932444
0.08388638
5.780515
5.8486073
6.020547
6.2968057
6.6804303
7.1820347
7.8084606
8.5440847
9.3165337
9.9191648
9.8703582
8.0728049
2.0461377
-11.061312
-28.385757
-32.563383
-18.995754
-2.5594238
5.0035262
5.4282505
4.5680706
4.1693416
3.7657824
3.0934012
2.3720839
1.8730036
1.6799421
1.7044588
1.7918927
1.8116056
1.6985074
1.4534052
1.1207633
0.76151692
0.43137371
0.16852026
-0.0091932125
-0.10053036
-0.11245837
-0.043690341
5.6912713
5.7418376
5.8681604
6.0662945
6.3293213
6.6496693
7.0071749
7.3505704
7.567757
7.4397571
6.5602989
4.2230352
-0.63846006
-8.5438472
-17.068887
-19.607167
-13.512436
-4.7925554
0.92264615
2.7096022
2.990579
3.1160971
3.1004311
2.810738
2.380446
2.0256717
1.8526904
1.8295681
1.8525787
1.8202102
1.6755382
1.4143373
1.071493
0.69987599
0.35147285
0.06553244
-0.13549768
-0.24304652
-0.25359806
-0.13551934
5.5499183
5.5825766
5.6631821
5.7850196
5.9352218
6.0955683
6.2330552
6.285808
6.1447653
5.6320951
4.4608884
2.2135595
-1.4157833
-6.2682019
-10.969674
-12.688122
-9.9925014
-4.9998156
-0.93191793
1.0689073
1.7914268
2.112724
2.258603
2.1967006
1.9781374
1.7333107
1.5588252
1.4678112
1.4126997
1.3319598
1.1851691
0.96561598
0.69527269
0.41131167
0.1522544
-0.05175086
-0.18290894
-0.23445665
-0.2059298
-0.099668288
5.3747347
5.390954
5.4296465
5.4832916
5.5367136
5.5673949
5.5393728
5.3946193
5.0444194
4.3577614
3.1589306
1.2451855
-1.407159
-4.5404341
-7.3066065
-8.4038739
-7.0924791
-4.2299267
-1.5444771
0.13256592
0.96272349
1.4102384
1.6900229
1.8116655
1.7825211
1.6680355
1.5430823
1.4445561
1.3660968
1.2800398
1.1617711
1.0034037
0.81503543
0.61831165
0.43768436
0.2931147
0.19608004
0.14773741
0.1356833
0.12625123
5.1829302
5.1848355
5.1876683
5.1843101
5.1600027
5.0922376
4.947927
4.680079
4.2206208
3.4813812
2.361159
0.80480669
-1.1432294
-3.2465735
-4.9889283
-5.732564
-5.1066318
-3.4724866
-1.7339482
-0.4285748
0.3842609
0.89525005
1.240615
1.4427195
1.5009323
1.4496162
1.3449963
1.2311916
1.1244725
1.0192732
0.90301309
0.76814631
0.616938
0.45994086
0.31128555
0.18382591
0.085785142
0.01953228
-0.017341327
-0.020384397
4.9890058
4.979302
4.9530586
4.904545
4.8210525
4.6825633
4.4619855
4.1222052
3.615401
2.8848344
1.895534
0.64577513
-0.81092501
-2.2836499
-3.4546458
-3.9906908
-3.7004826
-2.7448948
-1.6048299
-0.61976738
0.095410047
0.59115574
0.93790069
1.1585298
1.2561857
1.251396
1.1836259
1.0915792
0.9977974
0.90721531
0.81478471
0.7146261
0.60545798
0.49167731
0.38123961
0.28250106
0.20153421
0.14050817
0.096651
0.063452985
4.805049
4.7862291
4.7375119
4.6548821
4.5284035
4.3419219
4.0736251
3.6965129
3.1771009
2.4929261
1.6353436
0.61612423
-0.4952367
-1.574751
-2.4110852
-2.8217246
-2.7058617
-2.1396297
-1.3904594
-0.66854807
-0.082190408
0.35934269
0.6831402
0.9038349
1.0249051
1.0580009
1.0283521
0.96488676
0.88898448
0.81012149
0.72895688
0.64291392
0.55089543
0.45505279
0.36024574
0.27212398
0.19523302
0.13167726
0.080554975
0.041964157
4.6402253
4.6146496
4.5492997
4.4419279
4.2855165
4.0671046
3.7706881
3.3782229
2.869393
2.2399382
1.4920681
0.64765649
-0.23404619
-1.0568324
-1.6888385
-2.0217656
-2.0003023
-1.6631361
-1.1641763
-0.63511503
-0.16292938
0.22114276
0.51827439
0.73258237
0.8649953
0.92167946
0.91848133
0.8764046
0.81401939
0.74285681
0.66762711
0.58916643
0.50771655
0.42476347
0.34327472
0.26677539
0.19814865
0.13874624
0.087897968
0.046243046
4.5015215
4.4710775
4.3939647
4.2694197
4.0928767
3.8543773
3.5426944
3.1456631
2.6568807
2.0770331
1.4156172
0.69663432
-0.027414167
-0.68592927
-1.1904848
-1.4752753
-1.5059964
-1.3061985
-0.96579218
-0.57224411
-0.19253563
0.13683819
0.40360379
0.60382145
0.73575716
0.80258914
0.81466892
0.78748377
0.73649029
0.67343087
0.60498692
0.53420058
0.46234123
0.390628
0.32072931
0.25457585
0.19369822
0.13873718
0.089036364
0.045453017
4.3937639
4.3600768
4.2750618
4.1391185
3.9495165
3.6991842
3.3797525
2.9861506
2.5168267
1.9758931
1.3763865
0.74698168
0.12415112
-0.42877835
-0.85762746
-1.109793
-1.1725056
-1.0521736
-0.81103933
-0.50778308
-0.19598401
0.088948639
0.32880117
0.51476327
0.64309946
0.7151373
0.73803078
0.72328109
0.68360573
0.62978636
0.56919694
0.50595123
0.44208699
0.37876591
0.31699728
0.25774484
0.20167256
0.14886197
0.098393496
0.050756793
4.3203363
4.2846689
4.1948583
4.0518886
3.8544579
3.5978235
3.2764009
2.8874447
2.4321186
1.9175892
1.3599687
0.78204879
0.22541643
-0.26944893
-0.65009194
-0.88798482
-0.96388781
-0.89074485
-0.70624925
-0.45823152
-0.19096306
0.062676967
0.28221251
0.45638506
0.58026811
0.65414164
0.68324488
0.67657445
0.6447718
0.59762076
0.54255095
0.48422508
0.42517643
0.36667047
0.30943325
0.2539163
0.2003208
0.1484771
0.09755932
0.048716692
4.283233
4.2466984
4.1543862
4.0080158
3.8074687
3.5484518
3.2264992
2.8400433
2.3919211
1.8910981
1.3525558
0.80214386
0.27386249
-0.1905445
-0.55223363
-0.78042731
-0.86382896
-0.81092283
-0.65292524
-0.43156925
-0.18650018
0.050829947
0.25924019
0.42659606
0.54749187
0.62178155
0.65378219
0.65130018
0.62384501
0.58060856
0.52890461
0.47361902
0.41750412
0.36190478
0.30741419
0.25425864
0.20241739
0.15155904
0.10071843
0.050702983
-164.40372
316.76651
38.20277
-164.42572
316.75749
-217.59729
-216.06902
-217.5943
-113.59384
-197.32772
-113.59925
17.597344
142.32383
-73.814062
17.659965
142.24254
58.783032
-129.7387
321.84333
58.773176
-129.6862
-180.66911
-182.28458
-180.63919
-182.31749
-162.37866
-77.191048
-162.42222
-77.264871
145.25358
-37.935408
43.604776
145.11917
-38.021114
43.550287
-294.30529
-299.27896
-299.56162
-294.32066
-168.3749
-228.59507
-228.57132
-168.33661
34.121436
-46.109975
-46.139464
34.00784
-127.59024
-327.74048
-327.98879
-127.59733
-127.61609
-327.77137
-327.98706
-127.61667
-334.23538
-342.50798
-342.46934
-334.30788
-320.20593
-289.05343
-289.04085
-320.07476
-334.22014
-342.4642
-342.44553
-334.31353
-320.18402
-289.05316
-289.03848
-320.0884
-207.17506
-266.42231
-266.37788
-207.22538
-180.60727
-118.21432
-118.2261
-180.57736
-207.18016
-266.3792
-266.36947
-207.23253
-180.60219
-118.16713
-118.21311
-180.57621
-13.188024
-90.064463
-90.040834
-13.371791
-13.166124
-89.990396
-90.022579
-13.261442
-83.989511
-283.49002
-283.76001
-84.088626
-83.959269
-283.56704
-283.7345
-83.896664
-281.30226
-250.80179
-250.75938
-281.28832
-294.29148
-299.66593
-299.50633
-294.40175
-281.27166
-250.84268
-250.78588
-281.15851
-141.27842
-75.446933
-75.504889
-141.18608
-168.4039
-228.6177
-228.60206
-168.39032
-141.30556
-75.527249
-75.545688
-141.2756
34.069689
-46.178969
-46.182108
33.93813
-60.159875
-5.3262087
-80.499304
-18.746796
-60.166054
-5.3242544
-80.502232
-124.22002
-153.72809
-169.38679
-108.37392
-124.24274
-153.7536
-169.40261
-93.288886
-150.5419
-111.31864
-114.38251
-93.304975
-150.54969
-111.32501
62.134365
84.47546
250.48854
60.566232
62.125832
84.475815
250.46537
-282.11688
-216.04138
-228.85366
-277.24101
-228.87041
-277.28243
-282.13181
-198.23198
-197.33542
-177.59712
-230.63268
-177.60537
-230.65124
-198.23655
33.441557
93.958357
51.175178
40.712641
33.482494
93.95226
51.195063
253.53141
67.713724
77.277382
85.953009
253.50075
67.713787
77.260388
48.236027
322.05007
168.48918
168.49344
48.290399
-228.78177
-261.20507
-260.93582
-228.94249
-8.375788
-56.758039
-56.624951
-8.4922466
54.965156
56.013917
42.025276
99.730723
54.956142
55.980436
42.007587
-53.357967
0.080291218
-37.06593
14.915699
-53.357409
0.075457771
-37.073756
-137.50337
-82.118482
-96.469362
-123.01239
-137.50304
-82.131439
-96.481588
-79.579858
-86.798249
-65.929972
-118.71758
-79.587059
-86.809316
-65.943599
-111.68509
-164.42862
-90.423223
-226.42677
-90.44142
-226.47059
-111.64802
10.44628
316.94374
150.27516
150.29323
10.568242
-402.46991
-402.39742
-111.70285
-164.44341
-90.446565
-226.44342
-90.455489
-226.48537
-111.67314
10.440677
316.93787
150.25592
150.28671
10.567197
-402.66495
-402.51392
-270.66111
-217.60829
-223.7963
-254.89113
-223.81007
-254.89997
-270.64143
-282.13739
-216.08727
-228.90046
-277.28663
-228.90011
-277.31504
-282.15536
-270.65588
-217.61103
-223.79768
-254.89024
-223.81968
-254.89178
-270.62635
-158.75093
-113.60649
-141.44695
-119.53571
-141.45238
-119.54946
-158.75073
-267.56669
-299.393
-299.083
-267.84831
-157.36414
-121.43037
-121.35813
-157.39617
-198.24078
-197.34252
-177.58805
-230.64517
-177.60284
-230.65668
-198.24301
-158.74433
-113.60731
-141.43732
-119.52376
-141.44558
-119.54046
-158.73657
-267.54156
-299.26704
-299.0549
-267.83832
-157.31075
-121.32727
-121.28353
-157.32731
-61.200861
-104.31304
-104.17588
-61.394166
13.760368
142.42642
90.616814
29.630173
90.656778
30.168428
13.770216
-61.102709
-104.21963
-104.11407
-61.232965
13.792416
142.45604
90.806119
30.048342
90.752577
30.150597
13.925391
-349.80156
-349.78013
-74.440304
-129.73067
-186.47501
-58.442382
-186.473
-58.439792
-74.444512
48.254775
322.03582
168.46088
168.48694
48.402738
-349.99287
-350.01614
-74.415283
-129.72045
-186.38764
-58.420372
-186.45175
-58.439158
-74.35639
-243.98628
-180.69329
-237.93583
-193.44509
-238.01047
-193.46729
-243.93145
-233.38918
-182.29917
-217.71701
-188.74391
-217.7163
-188.77502
-233.3388
-243.97627
-180.69085
-237.93331
-193.45627
-237.97658
-193.47002
-244.0087
-233.37541
-182.30488
-217.75678
-188.77299
-217.71354
-188.78057
-233.37967
-114.50403
-75.237497
-75.169482
-114.50068
-160.77015
-162.39366
-193.64344
-142.07344
-193.66336
-142.09266
-160.75169
-120.54738
-77.214197
-80.050057
-105.91655
-80.078156
-105.93204
-120.52119
-228.83012
-261.04851
-260.79026
-229.03617
-114.59591
-75.365953
-75.266926
-114.65626
-160.79862
-162.40529
-193.70647
-142.12221
-193.67946
-142.10763
-160.81629
-120.58487
-77.240784
-80.155948
-105.96979
-80.126895
-105.94942
-120.60576
57.91805
145.37193
126.44923
113.54026
126.3684
113.55866
58.06245
-8.3590644
-56.821154
-56.712051
-8.4538223
57.870699
145.38734
126.14206
113.46067
126.36675
113.49941
57.979732
-336.04929
-325.31017
-296.82429
-294.34965
-325.36171
-296.89331
-335.98021
-346.52274
-350.89867
-299.41044
-303.27657
-351.20725
-303.3099
-346.53987
-346.55549
-303.32235
-351.35082
-299.63986
-351.57117
-303.43523
-346.41903
-336.16276
-294.31519
-325.51803
-296.87007
-325.44777
-296.85923
-336.2935
-201.17884
-178.85351
-185.91576
-168.36344
-178.81815
-185.91153
-201.21091
-228.73771
-260.74959
-260.781
-228.85701
-213.84184
-179.85362
-179.79985
-213.97382
-224.77535
-250.15868
-228.57786
-211.67292
-250.04123
-211.66491
-224.85497
-213.82487
-179.89664
-179.77745
-213.96804
-224.68984
-211.65585
-249.89309
-228.56331
-249.89654
-211.65019
-224.70821
-201.22282
-168.35282
-178.79614
-185.92704
-178.80804
-185.92827
-201.26616
-8.3241123
-56.654063
-56.570719
-8.4057586
12.601132
73.505825
73.730866
12.513201
12.643794
73.65294
73.788064
12.574334
-282.27231
-216.05817
-165.2287
-127.59103
-216.03878
-165.22283
-282.34333
-402.67968
-402.60194
-359.55567
-388.3331
-327.84341
-294.77979
-294.81935
-388.62017
-359.44356
-379.23503
-204.54484
-204.81104
-378.93269
-359.7332
-294.89873
-388.95656
-327.98076
-294.89572
-359.78077
-388.93938
-379.30391
-204.95919
-204.87378
-379.37147
-282.21352
-127.58479
-215.99272
-165.15899
-216.00785
-165.20665
-282.15597
-282.32589
-216.08997
-165.26974
-127.63034
-282.36711
-216.1004
-165.28256
-402.77289
-402.58407
-359.6998
-388.40012
-327.85568
-294.86247
-294.88751
-388.65823
-359.59675
-379.1795
-204.71805
-204.85407
-379.1642
-359.78471
-294.92042
-388.94147
-327.9714
-359.7988
-294.93881
-388.89285
-379.23505
-204.98448
-379.32202
-204.92537
-282.26537
-127.61535
-216.05775
-165.19817
-216.07079
-165.23497
-282.24927
-378.06187
-337.50686
-365.99031
-334.24792
-337.57311
-366.01615
-378.03212
-390.47555
-396.59975
-342.51279
-345.76522
-345.66283
-396.61871
-390.637
-390.32458
-345.48356
-396.51034
-342.54117
-345.58529
-396.63721
-390.20911
-378.22407
-334.25615
-337.76413
-366.11648
-337.66967
-366.05922
-378.39365
-337.36433
-313.636
-350.94477
-320.14343
-313.60132
-350.90067
-337.39451
-321.75882
-309.27656
-289.04733
-296.78513
-296.73617
-309.23184
-321.88499
-321.67178
-296.70981
-309.14183
-289.0423
-296.71883
-321.65927
-309.17961
-337.37368
-320.06844
-313.55139
-350.91457
-313.54387
-350.88644
-337.40298
-378.0791
-337.48938
-366.00748
-334.23893
-378.01201
-337.55667
-366.01868
-390.48713
-396.58061
-342.46003
-345.7388
-396.58496
-345.63055
-390.64213
-390.30792
-345.45235
-396.46481
-342.47878
-396.56764
-390.16143
-345.53903
-378.22276
-334.25643
-337.75595
-366.09186
-337.65732
-366.03859
-378.37528
-337.364
-313.61659
-350.94263
-320.12471
-337.39052
-313.59023
-350.89167
-321.74363
-309.21786
-289.04158
-296.81998
-296.75431
-309.18563
-321.88228
-321.65853
-296.70262
-309.13735
-289.0315
-321.65476
-296.71497
-309.14616
-337.39216
-320.07342
-313.59152
-350.91392
-313.56604
-350.87887
-337.44139
-239.9348
-224.08837
-218.21967
-207.19998
-224.11831
-218.2471
-239.92956
-267.50129
-298.7978
-298.88492
-267.61744
-263.16208
-288.4808
-266.41322
-249.72593
-249.70689
-288.3982
-263.29249
-253.04455
-219.95254
-219.92939
-253.2481
-263.06525
-249.64948
-288.15663
-266.39877
-249.67906
-288.27771
-263.02769
-253.00816
-219.8911
-219.90286
-253.13425
-240.0411
-207.22654
-224.19235
-218.2942
-224.16766
-218.29209
-240.1471
-168.75625
-163.22999
-192.62287
-180.60623
-163.21241
-192.62119
-168.8048
-157.36327
-121.28558
-157.33918
-121.3193
-172.08572
-206.60979
-206.54259
-172.17469
-172.08126
-206.53033
-206.50418
-172.15169
-168.73949
-180.58993
-163.17403
-192.58814
-163.18582
-192.60354
-168.75967
-239.93324
-224.0906
-218.23004
-207.20274
-239.92722
-224.11416
-218.26968
-267.48204
-298.8066
-298.88301
-267.61331
-263.10462
-288.34134
-266.3728
-249.68744
-288.29044
-249.67206
-263.21264
-253.08258
-219.99673
-220.00282
-253.27249
-263.04128
-249.64426
-288.14632
-266.3683
-288.21753
-263.01818
-249.65571
-253.031
-219.90556
-253.14433
-219.96254
-240.04312
-207.23306
-224.18263
-218.3315
-224.15985
-218.33531
-240.13652
-168.76424
-163.22529
-192.62738
-180.59922
-168.81172
-163.20393
-192.63541
-157.32183
-121.30084
-157.34749
-121.26685
-172.05479
-206.61951
-206.57405
-172.13717
-172.05897
-206.5431
-172.16298
-206.53558
-168.75327
-180.58729
-163.17072
-192.61306
-163.18064
-192.63551
-168.77063
-61.144167
-104.16261
-104.12415
-61.237031
-42.485626
10.398221
10.540286
-42.585677
-42.435646
10.678925
10.592572
-42.434978
-61.074518
-104.18205
-104.08511
-61.24804
-42.35516
10.675938
10.773244
-42.394156
-42.334573
10.706789
-42.437437
10.793008
-231.53632
-114.86209
-170.96965
-84.024281
-114.89381
-171.00352
-231.54772
-349.89152
-350.02378
-324.4671
-148.6743
-148.64547
-324.44911
-310.98981
-341.47654
-283.5865
-250.09911
-342.06398
-250.02173
-310.86714
-324.42994
-148.49015
-148.61305
-324.52008
-311.1044
-249.99675
-342.53581
-283.71713
-342.73705
-249.96633
-311.10145
-231.54843
-84.053483
-114.90549
-171.0957
-114.89819
-171.05028
-231.53398
-231.44554
-114.8213
-170.93385
-83.932568
-231.50774
-114.78637
-170.89927
-350.12985
-349.99743
-324.69394
-147.97605
-148.22573
-324.4539
-310.77526
-341.77367
-283.61548
-249.91542
-249.91558
-341.95396
-310.71857
-324.71729
-148.43353
-324.5379
-148.29203
-310.92012
-249.99695
-342.27006
-283.70155
-311.01587
-249.97288
-342.1755
-231.35977
-83.905833
-114.68392
-170.82678
-114.73948
-170.8542
-231.28649
-298.06344
-311.21205
-274.94122
-281.32604
-311.18486
-274.9812
-298.10608
-282.89783
-270.52999
-250.7816
-258.6407
-270.44683
-258.57131
-283.05277
-282.75351
-258.47189
-270.45014
-250.75493
-270.38076
-258.5102
-282.81744
-298.16006
-281.28279
-311.34491
-275.00867
-311.2592
-274.97867
-298.2544
-336.18338
-325.29993
-296.85541
-294.3327
-336.04915
-325.315
-296.96967
-347.03716
-351.64965
-299.61548
-303.76585
-351.58314
-303.62595
-347.21344
-346.77376
-303.32594
-351.2819
-299.56749
-346.5174
-351.4618
-303.47259
-336.33326
-294.34817
-325.30612
-297.20711
-325.28329
-297.09806
-336.44874
-298.15887
-311.18855
-274.92615
-281.22569
-298.14056
-311.12618
-274.92109
-283.03432
-270.60321
-250.83084
-258.62764
-258.57467
-270.55371
-283.13173
-282.94718
-258.48936
-270.50504
-250.81069
-282.88991
-258.53245
-270.51933
-298.16261
-281.16103
-311.04582
-274.89438
-311.05775
-274.88916
-298.1618
-127.49211
-152.50082
-122.84257
-141.24193
-152.44273
-122.79812
-127.56048
-114.50959
-75.185129
-75.13757
-114.56341
-130.0574
-166.04376
-165.99319
-130.06352
-130.06313
-166.09098
-165.96492
-130.14909
-127.45961
-141.20374
-152.38498
-122.74539
-152.40771
-122.76123
-127.44126
-201.21778
-178.8803
-185.93726
-168.42236
-201.23674
-178.87067
-185.95072
-228.77095
-260.75375
-228.86934
-260.65047
-213.96244
-179.95328
-179.90781
-214.10736
-224.76133
-250.10458
-228.61965
-211.66799
-250.05433
-211.67581
-224.81756
-213.92827
-179.90649
-213.98899
-179.88217
-224.74114
-211.67879
-249.95045
-228.62661
-224.7437
-250.00857
-211.69345
-201.23824
-168.40437
-178.87713
-185.92901
-178.87294
-185.93514
-201.28096
-127.56925
-152.53433
-122.87449
-141.31523
-127.59263
-152.51982
-122.87775
-114.59816
-75.201974
-114.58137
-75.234783
-130.13824
-166.16785
-166.11709
-130.1978
-130.14315
-166.11166
-130.16649
-166.07963
-127.54598
-141.29056
-152.49277
-122.83175
-152.50245
-122.85045
-127.53296
-8.320897
-56.666582
-8.3959275
-56.668493
12.573808
73.290634
73.510737
12.492487
12.612712
73.610541
12.576958
73.572721
-42.141967
-42.150982
-92.243283
-92.253034
-92.192594
-92.183084
-41.723634
-41.697087
-41.93696
-41.888998
60.335683
84.859473
84.886269
60.299889
60.360616
84.951272
84.948236
60.300713
-92.169967
-92.204906
-9.0150964
9.2768905
9.2868667
-9.0746787
-8.8019132
9.711709
9.6240759
-8.7851342
-92.180122
-92.196941
-8.678811
9.6400082
9.6275692
-8.7146506
-8.6866452
9.7390468
9.7324649
-8.7600968
-41.857973
-41.896804
59.799766
84.384783
84.455188
59.742597
60.168136
84.904318
84.834084
60.224266
17.578905
17.193235
297.53594
634.57593
635.12706
297.74647
17.206903
17.122565
297.48177
635.41437
635.26914
297.40653
-42.085593
-42.062147
-23.038843
-4.8309042
-4.8366844
-23.039259
-22.99777
-4.8122445
-22.996866
-4.8115555
-36.127805
-36.6456
266.13175
622.55609
623.06203
266.33257
-36.756533
-36.746692
266.05215
623.32045
623.18768
265.96244
-36.147465
-36.671936
266.13991
622.60758
623.07206
266.36704
-36.793753
-36.791225
266.06177
623.30393
265.96326
623.18804
-92.187574
-92.181382
-76.028422
-61.026691
-61.058613
-76.04711
-75.968595
-60.95453
-75.938434
-61.018049
29.842238
39.957408
39.998308
103.43292
338.08545
338.16929
103.34835
40.058653
29.928215
40.051922
103.49552
338.63878
103.49101
338.18077
-92.179677
-92.210207
-75.865728
-60.749344
-60.808554
-75.848069
-75.846966
-60.788445
-75.86043
-60.805642
30.130975
40.266993
40.280478
103.76952
338.27608
338.28092
103.72318
40.121715
30.119556
40.259523
103.74939
338.7509
103.58236
338.32793
17.93948
17.439192
297.57999
634.60004
635.12358
297.80366
17.254257
17.34362
297.52203
635.38856
297.41584
635.25573
126.17333
106.12057
106.03574
168.65288
349.52153
349.62827
168.69759
105.85276
126.14226
105.96909
168.65618
350.11793
349.63208
168.57438
-41.707719
-41.728511
-22.697355
-4.6384646
-4.652551
-22.680978
-22.668097
-4.6282406
-22.681449
-4.6236225
126.25014
105.91494
105.85727
168.4538
349.62934
349.70469
168.45309
105.80355
126.14953
105.83202
168.48646
350.21687
349.7845
168.50528
-41.959145
-42.018513
-22.896955
-4.7285135
-4.7626978
-22.854249
-22.931731
-4.8110209
-22.975041
-4.7970328
36.465746
14.888319
14.883525
36.458121
60.415932
84.968086
84.918542
60.422764
36.511024
14.917093
14.910203
36.524976
36.491891
14.921475
14.913681
36.466211
60.41991
84.998386
84.98486
60.418435
36.517404
14.915004
14.911934
36.524937
-92.160811
-92.161349
-75.950981
-60.900834
-60.957058
-75.949713
-75.9479
-60.946218
-75.928578
-60.981884
-27.686432
-44.959522
-44.98323
-27.727133
-8.9484193
9.4524347
9.3322896
-8.9374592
-27.644823
-44.895447
-44.949225
-27.63522
-27.525218
-44.79064
-44.853473
-27.519036
-8.8497805
9.5338314
9.5553369
-8.9151135
-27.566952
-44.881497
-44.892878
-27.615628
-92.184465
-92.206056
-75.935749
-60.87888
-75.946966
-60.897716
-75.912458
-60.823533
-75.884194
-60.884626
-27.370852
-44.627949
-44.681476
-27.385589
-8.6288488
9.7522427
9.6617289
-8.6230582
-27.35386
-44.67161
-44.682439
-27.370422
-27.421253
-44.769915
-27.491547
-44.772224
-8.6549403
9.7805902
9.7440076
-8.6538957
-27.395771
-44.702619
-44.753729
-27.39543
-41.807239
-41.757703
-22.83105
-4.7350562
-22.850568
-4.7298709
-22.783838
-4.6671313
-22.72489
-4.7076242
36.113058
14.812196
14.805722
36.095168
59.92687
84.688209
84.558094
60.021416
36.197484
14.88533
14.852573
36.276918
36.357728
14.888926
36.40623
14.864145
60.127662
84.756534
84.795029
60.065581
36.333157
14.87858
14.86726
36.308532
327.16993
321.97551
527.94064
276.81958
276.9005
528.58488
327.12548
308.38012
316.87218
265.0546
520.34221
265.14508
520.97188
308.35191
308.3817
316.86122
265.0429
520.37545
265.13265
520.97713
308.35992
327.1767
321.9521
527.96162
276.80198
276.88156
528.57919
327.13858
250.44665
147.37311
147.36614
120.22535
142.67548
142.68641
120.21301
250.43797
147.36138
147.36101
120.22043
142.66301
142.67963
120.20496
253.48652
158.50311
158.49352
127.3094
145.43913
145.4502
127.30668
253.47655
158.48006
158.48361
127.30384
145.42543
145.44418
127.2931
327.20158