/*--------------------------------*- C++ -*----------------------------------*\
| =========                 |                                                 |
| \\      /  F ield         | OpenFOAM: The Open Source CFD Toolbox           |
|  \\    /   O peration     | Version:  2406                                  |
|   \\  /    A nd           | Website:  www.openfoam.com                      |
|    \\/     M anipulation  |                                                 |
\*---------------------------------------------------------------------------*/
FoamFile
{
    version     2.0;
    format      ascii;
    arch        "LSB;label=32;scalar=64";
    class       surfaceScalarField;
    location    "50";
    object      phi;
}
// * * * * * * * * * * * * * * * * * * * * * * * * * * * * * * * * * * * * * //

dimensions      [0 3 -1 0 0 0 0];

oriented        oriented;

internalField   nonuniform List<scalar> 
32736
(
2.666985
0.00049457367
2.6644472
0.0025370267
2.6605728
0.003873426
2.6595149
0.0010567459
2.6596839
-0.00017022671
2.6600737
-0.00039129353
2.6606309
-0.00055886781
2.6613079
-0.00067902674
2.6620643
-0.00075870381
2.6628277
-0.0007659671
2.6586092
0.0042154752
2.6592789
-0.00067314921
2.6598929
-0.00061778134
2.6603608
-0.00047202959
2.6658025
-0.0054463643
2.6658132
-1.5744597e-05
2.6656128
0.00019490032
2.6651979
0.00040908187
2.6763217
-0.011129847
2.6754947
0.00082053258
2.6746268
0.00086105513
2.6737629
0.00085672933
2.6729342
0.00082108043
2.6721621
0.00076415391
2.6714588
0.00069486969
2.6708274
0.00062230365
2.6702696
0.00054802357
2.6697801
0.0004790039
2.6693545
0.0004143119
2.6689875
0.00035513395
2.6686717
0.00030361624
2.6684019
0.00025744161
2.6681733
0.00021654783
2.6679803
0.00018138764
2.6678171
0.00015272408
2.6676821
0.00012582238
2.6675728
0.00010227887
2.6674845
8.3407009e-05
2.6674173
6.4805523e-05
4.6045948e-05
2.6681226
-0.00020140763
2.669741
0.00091785211
2.6686896
0.0049238528
2.6625861
0.007159208
2.661171
0.0012436354
2.660464
0.00031428771
2.6607313
-0.00082780539
2.6613632
-0.0013129075
2.6621248
-0.0015225407
2.6629319
-0.00157566
2.6587469
0.0083976018
2.6593706
-0.0013002933
2.6599899
-0.0012407325
2.6604753
-0.0009616254
2.6659287
-0.010904421
2.6659366
-2.8714604e-05
2.6710592
-0.0049333259
2.6763501
-0.0048877137
2.6763364
-0.011122349
2.6754796
0.0016706944
2.6745921
0.001741533
2.6737187
0.0017228994
2.6728893
0.0016427886
2.6721219
0.001523582
2.6714274
0.0013809109
2.6708076
0.0012330291
2.67026
0.0010856222
2.6697827
0.00094562737
2.6693688
0.00081661731
2.6690106
0.00070113205
2.6687044
0.00059695856
2.6684432
0.00050586371
2.6682207
0.00042618315
2.6680327
0.00035734292
2.6678758
0.00029826269
2.6677449
0.00024697083
2.6676373
0.0002022808
2.6675522
0.00016306729
2.667486
0.00012745786
9.5203118e-05
2.6675402
-0.00039096057
2.6691114
-0.00065407422
2.673521
0.00051343415
2.6772374
0.0034418655
2.6747364
0.0037435427
2.6646216
0.010427759
2.6614074
0.0023848804
2.6615058
-0.0014131548
2.6622513
-0.0022700979
2.6631637
-0.0024904145
2.6739652
-0.0024066797
2.6597408
0.012921056
2.6603789
-0.0018823787
2.6609165
-0.0015031217
2.6663949
-0.016387221
2.6740505
-0.0076891428
2.6812993
-0.012187364
2.6899678
-0.013561927
2.6765126
0.0023266895
2.6755805
0.0025962167
2.6746382
0.0026768934
2.6737288
0.0026251566
2.6728805
0.002483638
2.6721092
0.0022870185
2.6714189
0.0020628819
2.6708107
0.0018320681
2.6702779
0.0016082683
2.669816
0.0013963975
2.6694162
0.0012043488
2.6690742
0.0010303207
2.668781
0.00087692813
2.668532
0.00074147408
2.6683202
0.00062504165
2.6681408
0.0005243851
2.6679899
0.00043797694
2.667864
0.00036310722
2.6677607
0.00029785075
2.6676787
0.00023915719
2.667619
0.00018439883
0.00013243189
2.6673775
-0.00051267624
2.6677528
-0.0010300874
2.6697024
-0.0014368632
2.6743188
-0.0011753062
2.6783174
-0.0002559949
2.6794269
0.0093171034
2.6666591
0.015151381
2.6621598
0.0030845532
2.6624638
-0.0025758727
2.6634066
-0.0034352799
2.6644484
-0.00345091
2.6603013
0.017065301
2.6610662
-0.002650344
2.6627307
-0.0031713438
2.6766685
-0.030329025
2.6770879
-0.0081134599
2.6774591
-0.012563709
2.6778561
-0.013964841
2.6768381
0.0033384742
2.6757759
0.0036518464
2.6747397
0.0037060043
2.6737716
0.0035857559
2.6728927
0.0033547198
2.6721097
0.0030619779
2.6714235
0.0027403839
2.6708283
0.0024181714
2.670317
0.0021096298
2.6698758
0.0018267867
2.6694998
0.0015687476
2.6691787
0.0013390234
2.6689059
0.0011367543
2.6686743
0.00095972184
2.6684796
0.00080665087
2.6683138
0.00067756355
2.668175
0.00056539649
2.6680588
0.0004696039
2.6679623
0.00038656649
2.6678836
0.00031278577
2.6678225
0.00024235666
0.00017544886
2.6672558
-0.00062773594
2.6674877
-0.0012624209
2.6679621
-0.0019118596
2.6693264
-0.0025401733
2.6720488
-0.0029792373
2.681327
3.8027735e-05
2.6834446
0.013032641
2.6647566
0.021771272
2.6628935
-0.0007143002
2.6637523
-0.0042959961
2.6649688
-0.004669563
2.6612134
0.020818329
2.6667598
-0.0081997339
2.6808355
-0.017250105
2.6837707
-0.033268299
2.6874852
-0.011832246
2.6800869
-0.0051707932
2.6785453
-0.01242873
2.6772848
0.0045926644
2.6760338
0.0048960535
2.6748691
0.0048632518
2.6738222
0.0046248165
2.6729015
0.0042672368
2.6721077
0.0038473115
2.6714288
0.0034105751
2.6708524
0.0029852044
2.6703638
0.0025883295
2.6699505
0.0022292716
2.6696012
0.0019063344
2.6693069
0.0016209298
2.6690601
0.0013704259
2.6688515
0.0011551925
2.6686741
0.0009711708
2.6685262
0.00081378773
2.6684003
0.00068102216
2.6682942
0.00056742703
2.6682063
0.00046863107
2.6681353
0.00038001409
2.6680792
0.00029736364
0.00020925674
2.6671135
-0.00073240765
2.6673246
-0.0014737263
2.6676526
-0.0022402512
2.6681572
-0.0030452242
2.669035
-0.003857654
2.6725274
-0.0034549828
2.6788797
0.0066794386
2.6693416
0.03130831
2.6639658
0.0046602061
2.6642523
-0.0045839263
2.6657733
-0.0061924247
2.6954146
-0.0088250223
2.6761638
0.011048584
2.6786377
-0.019726985
2.6819485
-0.036583155
2.6856581
-0.015546644
2.6971575
-0.016676044
2.6794062
0.005316279
2.6777995
0.0061925682
2.6763023
0.0063861227
2.6749812
0.0061766226
2.6738459
0.0057516557
2.672889
0.0052155057
2.6720937
0.004633587
2.6714372
0.0040583405
2.6708938
0.0035198601
2.6704435
0.0030301412
2.6700703
0.0025938833
2.6697584
0.0022092256
2.6694988
0.0018709185
2.6692819
0.0015771449
2.6690998
0.001326909
2.6689486
0.0011120416
2.6688195
0.00093351808
2.6687103
0.00078204404
2.6686188
0.00065263955
2.6685401
0.00054309868
2.6684729
0.00044443769
2.6684118
0.00035661983
0.00028816356
2.6669497
-0.00082015302
2.6671318
-0.0016559789
2.6674196
-0.0025281848
2.6678324
-0.0034584004
2.6684393
-0.0044647834
2.6703298
-0.0053460785
2.6795398
-0.0025310708
2.6942341
0.016613104
2.6733834
0.025509954
2.665974
0.0028240401
2.6681571
-0.0083769737
2.6754644
-0.016134459
2.6756669
0.010843908
2.6779003
-0.021964123
2.6812654
-0.039952145
2.6820028
-0.016289824
2.6825248
-0.017204106
2.680375
0.0074593616
2.6782919
0.0082687861
2.6764828
0.0081876227
2.6749773
0.007673621
2.6737494
0.0069708088
2.6727635
0.0061920964
2.6719819
0.0054065972
2.6713638
0.0046684914
2.6708716
0.0040052909
2.6704744
0.0034215989
2.6701521
0.0029110166
2.6698902
0.0024664055
2.6696752
0.0020807132
2.6694961
0.0017512346
2.6693474
0.0014700636
2.6692199
0.001234607
2.6691128
0.0010360779
2.6690207
0.00087074349
2.6689397
0.00073144419
2.6688716
0.00060970255
2.6688156
0.00049924239
2.6687829
0.00038878685
0.00024170318
2.6667705
-0.00088663551
2.6669097
-0.0017951084
2.667135
-0.0027535606
2.667472
-0.0037954302
2.6679602
-0.0049532477
2.6688598
-0.0062458934
2.6735372
-0.0072088948
2.6927644
-0.0026146503
2.7020826
0.01619087
2.6774021
0.027503634
2.6740531
-0.0050292145
2.6760512
-0.018134192
2.6768566
0.010036147
2.6798384
-0.024949118
2.6838717
-0.043990405
2.6843336
-0.016758661
2.6844387
-0.01731529
2.6813786
0.010511641
2.6786819
0.01095854
2.6765335
0.010328951
2.6748595
0.0093401525
2.6735666
0.0082560019
2.6725873
0.0071636982
2.6718527
0.0061338496
2.6713
0.0052144632
2.6708796
0.0044195643
2.6705547
0.0037405569
2.6703034
0.0031565427
2.6701059
0.0026575959
2.6699489
0.0022313035
2.6698218
0.0018717819
2.6697165
0.0015694058
2.6696285
0.0013176992
2.6695506
0.0011105115
2.6694838
0.00093594506
2.669424
0.00079091123
2.669369
0.0006650732
2.6693111
0.00055778108
2.669229
0.00047074822
0.0004319807
2.6665774
-0.00092591635
2.6666594
-0.0018769872
2.6668005
-0.0028945661
2.6670292
-0.0040240472
2.6673839
-0.0053079967
2.6679346
-0.0067966893
2.6692534
-0.0085280451
2.6765043
-0.0098658048
2.6976775
-0.0049829649
2.7085408
0.01663967
2.6775348
0.025975602
2.6769884
-0.017589132
2.6785737
0.0084482094
2.6826699
-0.029049052
2.6875838
-0.048911386
2.6873508
-0.016530284
2.686534
-0.016507386
2.6820954
0.014945469
2.6786232
0.014425015
2.6761282
0.012818946
2.6743319
0.011131579
2.673045
0.0095374419
2.6721401
0.0080631456
2.6715077
0.0067598429
2.6710586
0.0056566131
2.6707331
0.004736517
2.6704959
0.00396781
2.6703195
0.0033215262
2.6701861
0.0027785808
2.6700819
0.0023231706
2.6699986
0.0019432525
2.6699272
0.0016313232
2.6698625
0.0013750532
2.6698054
0.0011632047
2.6697511
0.00098823234
2.6696997
0.00084215101
2.6696504
0.00071515335
2.6696146
0.00059365592
2.6696189
0.00046728724
0.00036207295
2.6663752
-0.00093005236
2.6663874
-0.0018889674
2.6664211
-0.0029279631
2.6664995
-0.0041023116
2.6666662
-0.0054745413
2.6669896
-0.0071202262
2.6675854
-0.0091237975
2.6692287
-0.011509423
2.6765337
-0.012288168
2.6912532
0.0019196467
2.6825765
0.034651918
2.6786904
-0.013703924
2.7172648
-0.030128463
2.6869922
0.0012211757
2.6930866
-0.055005011
2.6911087
-0.014559887
2.6887947
-0.014189537
2.6824339
0.02129759
2.6781079
0.018747657
2.6753258
0.015597888
2.6735022
0.012951235
2.6723298
0.01070535
2.6716024
0.0087846919
2.6711553
0.0072000822
2.6708792
0.0059235531
2.6707084
0.0048956852
2.6706072
0.0040546353
2.6705477
0.0033644023
2.6705142
0.0027947048
2.6704946
0.0023254684
2.6704787
0.0019440829
2.6704652
0.0016323306
2.6704511
0.0013807466
2.670432
0.0011771547
2.6704081
0.0010102311
2.6703766
0.00087430482
2.6703348
0.00075854426
2.6702834
0.00064776338
2.670251
0.00050115432
0.00019333168
2.6661749
-0.00089282835
2.6661052
-0.0018189103
2.6660085
-0.0028310244
2.6658994
-0.003993032
2.6658121
-0.0053871144
2.6658057
-0.0071137613
2.6659926
-0.0093106026
2.6666479
-0.012164786
2.6699757
-0.015615859
2.686512
-0.014616333
2.7121949
0.0089694527
2.6848032
0.013686913
2.6879527
-0.033275083
2.6938149
-0.0046334654
2.7011709
-0.062361607
2.6950605
-0.0084310858
2.6898703
-0.0090064235
2.6811718
0.030000142
2.6762812
0.023632291
2.6734945
0.018380656
2.6718677
0.014573548
2.6709901
0.011576828
2.6705547
0.0092120768
2.6703517
0.0073919448
2.6702739
0.005987078
2.6702671
0.0048844026
2.6702956
0.0040050405
2.6703422
0.0032951198
2.6703933
0.0027207986
2.6704414
0.0022568258
2.6704855
0.0018828572
2.6705237
0.0015822019
2.6705566
0.00134091
2.6705841
0.0011481044
2.670601
0.00099601681
2.6706049
0.0008760375
2.670584
0.00078660967
2.6705168
0.00072107926
2.6703579
0.0006641839
0.00053437558
2.665988
-0.00081326143
2.665829
-0.0016596011
2.6655871
-0.0025888636
2.6652651
-0.0036707849
2.6648686
-0.0049903789
2.6644257
-0.0066706859
2.6640127
-0.0088975109
2.6638055
-0.011957344
2.6644542
-0.016264161
2.6702401
-0.020401522
2.6892863
-0.010075444
2.684594
0.018382421
2.6939632
-0.042636806
2.7090834
-0.019747273
2.715191
-0.068448544
2.6993925
0.0073704583
2.6891805
0.0012193824
2.6776674
0.041505674
2.672843
0.028451939
2.6705464
0.020670211
2.6695908
0.015520597
2.6693784
0.011778213
2.6694742
0.0091026601
2.6696743
0.0071753183
2.6698998
0.0057431513
2.6701157
0.0046486611
2.6703046
0.0037964228
2.6704579
0.0031234269
2.6705768
0.0025861489
2.6706677
0.0021541203
2.6707378
0.0018051336
2.670794
0.0015233011
2.6708405
0.0012956906
2.6708805
0.0011131903
2.6709147
0.00096927584
2.6709383
0.00086147438
2.6709408
0.00079251323
2.670892
0.00077623653
2.6707042
0.00085524128
0.0011658951
2.6658279
-0.00069202736
2.6655818
-0.0014132942
2.6651966
-0.0022034731
2.6646516
-0.0031255719
2.6639193
-0.0042579308
2.6629702
-0.0057214321
2.6617877
-0.0077147252
2.6604129
-0.010582356
2.6590995
-0.0149501
2.6596084
-0.020908297
2.6701739
-0.020639748
2.6848092
0.0037502954
2.6966479
-0.0072305109
-0.020034528
-0.0072535469
-0.019952924
2.7315626
-0.02882862
0.0016584055
-0.028848842
0.001366634
2.7433391
0.012163881
-0.052422813
0.012390708
-0.05235057
2.7120472
0.0092289796
0.010105835
0.0092313995
0.010105086
2.6838362
0.01122455
0.0034908248
0.011125363
0.0035932391
2.6707202
0.016121508
0.011189164
0.016119693
0.011183493
2.6665181
0.032640958
2.6653016
0.02187427
2.6655706
0.015237806
2.6663143
0.011019621
2.6670827
0.0083177119
2.6677757
0.0064667875
2.6683771
0.0051277268
2.6688816
0.0041341564
2.6692893
0.0033833574
2.6696086
0.0028037821
2.6698535
0.0023458517
2.6700392
0.0019763302
2.6701807
0.0016747462
2.6702894
0.0014261325
2.6703755
0.0012216904
2.670445
0.0010543591
2.6705029
0.00092085375
2.6705511
0.00082078926
2.6705891
0.00075946077
2.6706158
0.0007517554
2.6706395
0.00083155796
0.0010863561
2.6657082
-0.00053620393
2.6653886
-0.001093466
2.6648798
-0.001694588
2.6641387
-0.0023842873
2.6630968
-0.0032158925
2.6616505
-0.0042749771
2.6596439
-0.0057079938
2.6568494
-0.0077875344
2.6529866
-0.011086126
2.6487201
-0.016641454
2.6530946
-0.025012507
0.66207089
-0.0048821599
0.66923712
0.6620179
0.66932202
0.0020412378
-0.0048856631
0.0019246588
0.66255355
-0.0077132857
5.0370964e-07
0.67752058
-0.039179593
1.4270673e-06
-0.66716942
-0.6885937
0.68800788
0.012747685
4.983876e-06
-0.69269843
0.68546342
0.016461936
3.0099957e-06
-0.67944836
0.68530527
0.0053720486
2.7438783e-06
-0.66679667
0.66486311
0.01805558
-3.3025858e-06
2.6531986
0.0090808033
-0.66325551
-0.6620678
-0.66328122
-0.66207097
0.0060128111
0.0090325705
0.0059715771
2.6568376
0.018219049
2.6596292
0.012429393
2.6616913
0.0089393799
2.6632061
0.0067861547
2.6643428
0.0053158646
2.6652117
0.004250955
2.6658819
0.003463559
2.6664018
0.0028717483
2.6668068
0.0024148443
2.6671228
0.0020513549
2.6673694
0.0017546118
2.6675614
0.0015074851
2.6677106
0.0012999156
2.6678258
0.0011250878
2.6679153
0.00097890994
2.6679859
0.00085950066
2.6680445
0.00076743076
2.6680992
0.00070673289
2.6681619
0.00068878767
2.6682525
0.00073996617
0.00093291409
2.665641
-0.00035744983
2.6652732
-0.0007256111
2.6646826
-0.0011040348
2.66381
-0.0015115305
2.6625564
-0.0019623565
2.6607572
-0.0024756705
2.6581294
-0.0030801286
2.6541624
-0.0038204349
2.6478609
-0.0047847042
2.6373168
-0.0060960793
0.65621799
-0.008001194
0.65390766
0.65626389
0.65391601
0.65717482
-0.0058381277
1.3793269e-08
1.5777824e-07
0.011717085
-0.66788961
0.16385219
0.16213636
0.16214385
0.16396396
0.0039593967
-0.0017419858
-0.0018664688
0.0037260107
0.012560434
-0.16261117
-5.2094952e-07
0.16363341
-0.01358187
-0.17697232
-0.0094766938
4.6437508e-06
0.17623842
0.010206408
-0.17627308
-0.0085664647
3.2021578e-06
0.17277864
0.012057598
-0.16442681
-0.0075151073
7.9191621e-07
0.16188675
0.010055248
-0.16359478
0.65267707
-2.2145542e-05
-0.1635945
-0.16261859
-0.16261045
0.0055187224
0.0055133268
0.004217199
0.0042216671
-0.019713084
-0.65442471
0.65542372
0.0080859113
-1.2670245e-05
2.5924137
0.0080658918
-0.65361112
-0.63754415
-0.65363702
-0.63749267
2.5984494
0.0063746371
2.6021977
0.0051723415
2.6046719
0.0042954695
2.6063417
0.0036350515
2.6074705
0.0031188622
2.6082359
0.0027043947
2.6087574
0.0023657685
2.6091096
0.0020857578
2.6093371
0.001852031
2.609466
0.0016557355
2.6095122
0.0014900347
2.609487
0.0013502528
2.6093992
0.0012326886
2.6092575
0.00113505
2.609071
0.001055527
2.6088513
0.00099301267
2.6086144
0.000946667
2.6083888
0.00091610946
2.6082294
0.00090092209
0.00089683726
2.6656336
-0.00017145634
2.6652504
-0.00034245122
2.6646353
-0.00048897314
2.6637263
-0.00060257776
2.6624198
-0.00065597251
2.6605435
-0.00059946627
2.6577993
-0.00033613964
2.6536484
0.00033018964
2.6470396
0.0018239449
2.6359319
0.0050105548
0.65348774
0.010028741
0.65543513
0.65349607
0.655482
0.0024141136
0.64989705
0.0011763761
-1.9255632e-07
0.00083660971
-0.16031452
0.15930474
0.00017242663
5.4625901e-07
0.0004459242
-0.038354536
-4.1429974e-06
-0.0015339445
0.010592782
0.0091832933
0.0091524976
0.010518097
-0.036350865
-0.0018548337
1.7797713e-06
-0.0017761009
0.15102666
-0.036378272
-0.037330479
-0.037340986
-0.62949157
-0.0032994669
0.63450103
-0.0017258342
6.5665251e-06
2.5973842
-0.0029239775
-0.63944169
-0.65371072
-0.63955257
-0.65371144
2.6039049
-0.00016178617
2.6078834
0.0011794473
2.6104778
0.0016891222
2.6122203
0.0018855958
2.6133984
0.0019398593
2.6142016
0.0019073972
2.6147565
0.0018239705
2.6151416
0.0017192727
2.6154039
0.0016120979
2.6155709
0.0015124485
2.6156597
0.0014244291
2.6156818
0.0013487793
2.6156463
0.0012852903
2.6155621
0.0012325837
2.6154386
0.0011891712
2.615287
0.0011522709
2.6151234
0.0011159319
2.6149753
0.0010675222
2.6148973
0.00098015938
0.00077809207
2.6656865
5.9651394e-06
2.6653223
2.1569016e-05
2.6647422
9.0922445e-05
2.6638957
0.00024369144
2.6627026
0.00053696422
2.661038
0.0010648417
2.6587096
0.0019918213
2.6554223
0.0036167607
2.6507675
0.0064775912
2.6451641
0.010612593
2.6474881
0.0077041384
0.66765601
-0.021907768
-0.00022674936
0.0072828219
-0.00023032957
0.0071635416
0.66003062
0.66774332
0.65997497
-0.0057476499
0.67126946
0.0021336865
3.3233433e-07
-0.010850494
0.67748665
0.033708803
-2.9123562e-06
-0.66252129
-0.01088245
-0.013469455
-0.013468004
0.011345231
-0.69519191
0.69758745
-0.022887557
-2.62673e-06
0.011297635
-0.0010547056
-0.0010912425
0.0095405262
-0.69768072
0.68205214
-0.022782602
-3.2002362e-07
0.0095525516
0.0096537357
0.0096649984
0.009291469
-0.66986589
0.66108282
-0.011224486
7.8482424e-06
0.0093038835
0.00064650882
0.00075652685
0.013167602
-0.65900539
0.65874128
-0.012918746
9.8810155e-06
2.6484553
-0.017730024
0.0037169066
0.0012140344
0.0037602419
0.0012542884
-0.65949251
-0.66085774
-0.65948375
-0.66085716
2.6546494
-0.0091266241
2.6588053
-0.0043264088
2.661666
-0.0016896747
2.6636656
-0.00031720183
2.6651121
0.00043450758
2.6661865
0.00086368687
2.6669971
0.0010978485
2.6676152
0.0012096398
2.6680912
0.0012492484
2.6684607
0.0012499506
2.6687495
0.0012320733
2.6689764
0.0012060912
2.669156
0.0011777033
2.6692994
0.0011499417
2.6694161
0.0011238283
2.6695141
0.0010990585
2.6696021
0.0010723355
2.6696882
0.0010366023
2.6697852
0.00097534855
2.6699131
0.00085501149
0.00059507865
2.6657934
0.00016091305
2.6654765
0.00033828519
2.6649794
0.00058768595
2.664271
0.00095179622
2.663307
0.0015005618
2.662031
0.0023404444
2.6603822
0.0036399
2.6583279
0.0056701356
2.6560008
0.0088032008
2.6550172
0.011594465
2.663988
-0.0012689025
2.6773306
-0.035249843
2.6851258
0.026472762
-0.0018616706
-0.015303434
-0.0018869601
-0.015215476
2.7182687
-0.004069866
-0.023989074
0.0096261858
-0.02401153
0.0093035346
2.7246853
0.063291702
0.024035068
-0.059056695
0.024294107
-0.058978649
2.6864606
-0.025364123
0.014670916
0.017136309
0.014659476
0.017124745
2.6697108
0.063198825
0.0055167748
-0.028757153
0.0051963365
-0.028413189
2.6612508
-0.029893584
0.011932109
0.0072330693
0.011941399
0.0072429858
2.6604177
-0.016898577
2.6614644
-0.010175588
2.6632797
-0.0061446926
2.6650678
-0.0034802675
2.6665547
-0.0018065103
2.6677604
-0.00077342884
2.6687419
-0.00012093641
2.6695356
0.00029999257
2.6701684
0.00057159523
2.6706667
0.00074494192
2.6710571
0.00085404075
2.6713639
0.00092084853
2.6716082
0.00095955155
2.6718066
0.00097979725
2.6719724
0.00098756661
2.6721153
0.000987475
2.6722421
0.00098123944
2.6723564
0.00096811496
2.6724598
0.00094229869
2.6725543
0.00088739042
2.6726528
0.00075936365
0.00041769229
2.6659428
0.00028487022
2.6656925
0.00058809997
2.6653073
0.00097238229
2.664777
0.0014816928
2.6640914
0.0021856498
2.6632523
0.0031788398
2.6622926
0.0045988282
2.6613272
0.0066344456
2.660926
0.0092026206
2.665512
0.00700664
2.684118
-0.019875844
2.6776052
-0.028738637
2.6845966
0.019481539
2.7014521
-0.020925773
2.7068614
0.05788072
2.6904866
-0.0089932647
2.6768784
0.076810187
2.6685814
-0.021597983
2.6663695
-0.014685466
2.6660093
-0.0098144796
2.6664984
-0.0066329609
2.6673589
-0.0043397907
2.6682511
-0.0026977288
2.6690503
-0.0015721105
2.6697378
-0.00080896024
2.6703172
-0.00028101228
2.6707969
8.9319058e-05
2.6711863
0.00035254137
2.6715004
0.00053714515
2.6717552
0.00066442212
2.6719673
0.00074769147
2.6721466
0.00080290413
2.6723047
0.00083432211
2.6724455
0.00085363769
2.6725722
0.00086297005
2.6726852
0.0008637381
2.6727724
0.00086235706
2.672809
0.00085504531
2.6727088
0.00086184023
0.00095741605
2.6661218
0.00037275883
2.6659449
0.00076445942
2.6656812
0.0012355343
2.6653373
0.001825003
2.6649269
0.002595327
2.6644876
0.0036174038
2.6640993
0.0049862265
2.663991
0.006741471
2.6663937
0.0067984821
2.6832157
-0.0098169658
2.7120821
-0.048744553
2.6816334
0.0017100125
2.6828894
0.018224415
2.6904336
-0.028471604
2.6946917
0.05361987
2.6899557
-0.0042579194
2.7680774
-0.0013158712
2.6731681
0.07331407
2.6702755
-0.011791274
2.6690803
-0.0086171288
2.6687269
-0.006276886
2.6688605
-0.0044702998
2.6692215
-0.0030547466
2.669649
-0.0019948641
2.6700721
-0.0012270615
2.670471
-0.00067496866
2.6708322
-0.00026751263
2.6711552
3.3293395e-05
2.6714406
0.00025505557
2.67169
0.00041832475
2.6719069
0.00053443831
2.6720992
0.00061519187
2.6722668
0.00067235737
2.6724165
0.00071059017
2.672548
0.00073856786
2.6726573
0.00076153282
2.6727381
0.00078719532
2.6727681
0.00082900817
2.6727027
0.00092907853
0.0012146124
2.6663153
0.00042522396
2.666212
0.00086705917
2.6660655
0.0013813676
2.6658918
0.0019979605
2.665721
0.0027652409
2.6656017
0.0037358241
2.6656286
0.0049582488
2.6665497
0.0058191866
2.6728206
0.00052601779
2.6869058
-0.023904034
2.6781218
-0.039960964
2.6755096
0.0043201442
2.7253062
-0.031573116
2.6845622
0.01227037
2.6876619
0.050517462
2.684768
-0.0013682677
2.685964
-0.0025103713
2.675387
0.083889163
2.6725931
-0.0089957394
2.671155
-0.0071768319
2.6704649
-0.0055837524
2.6702394
-0.0042407843
2.670296
-0.0031061582
2.6704918
-0.0021841709
2.6707481
-0.0014757352
2.6710189
-0.00093749589
2.6712911
-0.00053109891
2.6715487
-0.00021589303
2.6717868
2.5092637e-05
2.672002
0.00021068308
2.6721931
0.00035057272
2.672361
0.00045431266
2.6725083
0.00053192188
2.6726357
0.00059003778
2.6727463
0.00063483491
2.6728389
0.00067547858
2.6729146
0.0007171011
2.6729763
0.00077113258
2.6730603
0.00084711839
0.00090775968
2.6665139
0.00044489316
2.6664748
0.00090543337
2.6664311
0.0014241753
2.6664014
0.0020268181
2.6664191
0.0027465667
2.6665379
0.0036160515
2.667317
0.0041779819
2.6739032
-0.00076830163
2.6942553
-0.019827501
2.7022504
-0.031900515
2.6678158
-0.0055285025
2.6655732
0.0065622289
2.6674701
-0.033471545
2.6736913
0.0060470099
2.6795507
0.044655116
2.6789213
-0.00074049866
2.6765796
-0.00017346691
2.6760771
0.084393397
2.6737791
-0.0066970808
2.6723854
-0.0057812342
2.6715652
-0.0047603941
2.671127
-0.0037982804
2.6709512
-0.0029243498
2.6709405
-0.0021657087
2.6710199
-0.0015456261
2.6711478
-0.0010544245
2.6712977
-0.0006694328
2.6714579
-0.00036459137
2.6716159
-0.00012215956
2.6717677
6.8499124e-05
2.6719078
0.00021878151
2.6720354
0.00033391769
2.67215
0.0004238983
2.6722536
0.00049260867
2.672347
0.00054777578
2.6724321
0.00059683911
2.6725124
0.00064243319
2.6726001
0.00068745007
2.6727241
0.0007255611
0.00072382024
2.6667045
0.00043809173
2.6667217
0.00088727147
2.6667616
0.0013832977
2.6668447
0.001942697
2.6670024
0.0025878363
2.6674922
0.0031251819
2.6716703
-1.3321049e-06
2.6902914
-0.019390718
2.698926
-0.028463663
2.6728646
-0.0058408758
2.6634877
0.0038476437
2.6644606
0.0055872889
2.6615913
-0.030603895
2.6633782
0.0042580661
2.6692692
0.038761558
2.6684687
5.6422632e-05
2.6670535
0.0012429369
2.6761846
0.075259836
2.6744001
-0.0049114624
2.6731535
-0.0045324623
2.6723199
-0.003923431
2.6717913
-0.0032647732
2.671491
-0.0026174096
2.6713568
-0.0020230906
2.6713289
-0.0015076878
2.6713672
-0.0010815268
2.671445
-0.00073562439
2.6715464
-0.00045463199
2.6716609
-0.00022610252
2.6717787
-4.0006017e-05
2.6718973
0.00010791927
2.6720099
0.00022773839
2.6721189
0.00032033593
2.6722205
0.00039579064
2.6723177
0.00045514932
2.6724105
0.00050851053
2.6724978
0.00055870462
2.6725773
0.00061037066
2.6726266
0.0006766476
0.00078791011
2.6668834
0.00040921161
2.6669444
0.00082526274
2.667049
0.001277698
2.6672167
0.0017738812
2.667511
0.0022923546
2.6690191
0.001615848
2.6777668
-0.0087503019
2.6919338
-0.033559129
2.6705006
-0.0070319318
2.6624444
0.0022138817
2.6623332
0.0039565807
2.6638285
0.0040907278
2.6601114
-0.026888719
2.661266
0.003101405
2.6669875
0.033037994
2.6666361
0.00040671349
2.6660186
0.0018567334
2.6759223
0.065358086
2.6745723
-0.0035606335
2.6735215
-0.0034791613
2.6727508
-0.0031488918
2.6722088
-0.0027170977
2.6718535
-0.0022551673
2.6716434
-0.0018043577
2.6715366
-0.0013912272
2.6714996
-0.0010339288
2.6715084
-0.00073367096
2.6715481
-0.00048375953
2.6716072
-0.00027579796
2.6716807
-0.00010533518
2.6717592
3.5941221e-05
2.6718435
0.00014832413
2.6719274
0.00024006895
2.6720125
0.00031332502
2.6720954
0.00037475445
2.6721785
0.00042749273
2.6722627
0.00047597546
2.6723488
0.00052461106
2.6724506
0.00057513498
0.00061704365
2.6670458
0.00036196906
2.6671393
0.00073069262
2.6672936
0.001122241
2.6675624
0.0015039885
2.6681452
0.0017083639
2.6712803
-0.0015205224
2.6772155
-0.014686865
2.6672155
-0.023560502
2.6613234
-0.001141438
2.6610735
0.0024619481
2.6620656
0.0029629336
2.6883985
-0.022244344
2.6590403
0.0024675703
2.6597926
0.0023474423
2.6654015
0.027427341
2.6652902
0.00051593991
2.6651648
0.0019840248
2.6755557
0.054965966
2.6745538
-0.0025567733
2.673698
-0.0026206782
2.6730182
-0.0024645909
2.6725007
-0.0021940789
2.6721259
-0.0018730401
2.6718683
-0.0015383809
2.6717041
-0.001217622
2.6716095
-0.00092951356
2.6715646
-0.00067874011
2.671556
-0.00046577074
2.671576
-0.00028718904
2.6716153
-0.00013723294
2.6716695
-1.2320348e-05
2.6717329
8.9384534e-05
2.6718037
0.0001723872
2.6718789
0.00024042785
2.6719579
0.00029716886
2.672039
0.00034753996
2.6721221
0.00039319567
2.6722086
0.00043790097
2.6722944
0.00048853656
0.00055037822
2.667188
0.00030339587
2.6673066
0.00061105307
2.6676117
0.00081601097
2.6687537
0.00036077328
2.6711976
-0.00073678923
2.6801424
-0.010466619
2.6818843
-0.016430222
2.6627796
-0.0044572495
2.660471
0.0011655657
2.6608752
0.0020559338
2.6616563
0.0021795838
2.6575236
-0.018113478
2.6581229
0.0018665815
2.6587415
0.0017273516
2.6642875
0.021880343
2.6643052
0.00049846564
2.6644848
0.0018027434
2.6751862
0.04426677
2.6744364
-0.0018049835
2.6737415
-0.0019226301
2.6731475
-0.0018658706
2.6726636
-0.001704114
2.6722848
-0.001486791
2.6720025
-0.0012476619
2.671801
-0.0010070078
2.6716664
-0.00078547967
2.6715825
-0.00058547126
2.671539
-0.00041343365
2.6715271
-0.00026721772
2.6715394
-0.00014253416
2.6715714
-3.8619119e-05
2.6716181
4.6909231e-05
2.6716744
0.00011889809
2.6717389
0.00017762245
2.6718091
0.00022792165
2.6718857
0.00027131249
2.6719678
0.00031067197
2.6720531
0.00035142969
2.6721459
0.00039502637
0.00044392644
2.6673107
0.00023527554
2.6675769
0.00034361852
2.6693655
-0.00097370985
2.6737667
-0.0040417539
2.6775024
-0.0044736609
2.6783037
-0.011269366
2.6651913
-0.0033192338
2.6603133
0.00041924759
2.6602206
0.0012564354
2.6607712
0.0015035032
2.6614449
0.001504018
2.6569884
-0.013658883
2.6575165
0.0013373419
2.658025
0.0012180985
2.6635273
0.016377193
2.6636203
0.0004054572
2.6640283
0.0013956836
2.6748813
0.033415724
2.6743087
-0.0012297747
2.6737387
-0.0013484711
2.6732183
-0.0013405769
2.6727693
-0.0012484011
2.6724
-0.001110093
2.6721058
-0.00094483786
2.6718832
-0.00077575178
2.67172
-0.00061316706
2.6716083
-0.00046519909
2.6715382
-0.00033522403
2.6715002
-0.0002218617
2.6714918
-0.00012799097
2.6715047
-4.6506903e-05
2.671534
2.1112265e-05
2.6715779
7.7598723e-05
2.6716325
0.00012413916
2.6716966
0.00016460975
2.6717684
0.00019929148
2.6718464
0.00023207085
2.6719333
0.00026332479
2.6720308
0.00029649893
0.00033314794
2.6674741
9.8639349e-05
2.6689387
-0.0011222454
2.673192
-0.0052282191
2.6767027
-0.0075538148
2.6739503
-0.0017226734
2.6635468
-0.00086726119
2.6600079
0.00021816833
2.65976
0.00066545021
2.6601491
0.00086568073
2.6607104
0.00094013552
2.6711783
-0.0089657703
2.6566982
0.00082071913
2.65714
0.00089453502
2.6575721
0.00078496831
2.6630457
0.010904276
2.6631797
0.0002696399
2.6636357
0.00094215034
2.6746725
0.022381731
2.6742145
-0.00076692516
2.6737305
-0.00085935012
2.6732653
-0.00086924745
2.6728453
-0.00082147155
2.6724819
-0.00073872546
2.6721813
-0.00063596392
2.6719415
-0.0005273402
2.6717589
-0.00042221317
2.671624
-0.00032259883
2.6715322
-0.00023633282
2.6714762
-0.00015982708
2.6714481
-9.48639e-05
2.6714445
-3.9159751e-05
2.6714619
6.3845885e-06
2.6714952
4.5802673e-05
2.671541
7.9030417e-05
2.6715993
0.00010613383
2.671668
0.00013014395
2.6717458
0.00015301527
2.6718319
0.00017564875
2.6719306
0.00019670333
0.0002198875
2.6680548
-0.00054570566
2.6695713
-0.0026401081
2.6683656
-0.0040239028
2.6620634
-0.0012529706
2.6604077
-6.8432025e-05
2.6594208
0.00011811585
2.6593812
0.000256157
2.6596847
0.00036037368
2.6601132
0.00043518394
2.660597
0.00045441815
2.656125
-0.0044944343
2.656504
0.00044073934
2.6569478
0.00044976811
2.657347
0.00038576592
2.6628013
0.0054475787
2.6629374
0.00013521871
2.6634145
0.00046732083
2.6745787
0.0112228
2.674187
-0.00036958888
2.6737538
-0.00042033388
2.67332
-0.00042887521
2.6729149
-0.00040933037
2.6725541
-0.00037005058
2.6722474
-0.00032128576
2.6719951
-0.00026704708
2.6717956
-0.00021522337
2.6716452
-0.0001653338
2.6715369
-0.00012195165
2.671465
-8.2879714e-05
2.6714248
-5.051694e-05
2.6714119
-2.3320203e-05
2.671419
1.3877461e-06
2.6714448
2.0979335e-05
2.671487
3.7106559e-05
2.6715407
5.2188891e-05
2.6716064
6.3761351e-05
2.6716819
7.6211738e-05
2.6717699
8.6158098e-05
2.6718663
9.9210205e-05
0.00011216849
2.6669179
2.6642772
2.6602527