/*--------------------------------*- C++ -*----------------------------------*\
| =========                 |                                                 |
| \\      /  F ield         | OpenFOAM: The Open Source CFD Toolbox           |
|  \\    /   O peration     | Version:  2406                                  |
|   \\  /    A nd           | Website:  www.openfoam.com                      |
|    \\/     M anipulation  |                                                 |
\*---------------------------------------------------------------------------*/
FoamFile
{
    version     2.0;
    format      ascii;
    arch        "LSB;label=32;scalar=64";
    class       volVectorField;
    location    "50";
    object      U;
}
// * * * * * * * * * * * * * * * * * * * * * * * * * * * * * * * * * * * * * //

dimensions      [0 1 -1 0 0 0 0];

internalField   nonuniform List<vector> 
11524
(
(50.000727 -0.00083153021 2.4148612e-23)
(50.003277 -0.0016646942 0)
(50.007969 -0.0025099389 5.1505364e-22)
(50.014683 -0.0033755734 7.1610215e-22)
(50.023336 -0.0042438979 -7.163406e-22)
(50.033921 -0.0050892388 -8.6245184e-22)
(50.046388 -0.0058722575 7.8246657e-22)
(50.060565 -0.0065396862 1.4424764e-21)
(50.07612 -0.0070201253 -1.3676794e-21)
(50.092531 -0.0072247216 -2.0666363e-21)
(50.109059 -0.0070557016 4.4933477e-21)
(50.124792 -0.0064501893 -2.4299432e-21)
(50.138625 -0.0053670447 -1.6257656e-21)
(50.149451 -0.0038448732 1.5205488e-21)
(50.15635 -0.0020237792 1.3668631e-20)
(50.158751 -8.3128295e-05 -1.7304419e-21)
(50.156638 0.0017409688 1.7304445e-21)
(50.15051 0.0032490923 0)
(50.141295 0.0043636023 0)
(50.130103 0.0049896842 3.6101044e-22)
(50.117925 0.0052372372 9.5492084e-24)
(50.105565 0.0052002369 -3.0514303e-22)
(50.093584 0.0049670066 8.4132328e-24)
(50.08234 0.0046100369 -2.1599309e-22)
(50.072039 0.0041862133 0)
(50.062778 0.0037397293 9.0225547e-24)
(50.054563 0.0033002918 -5.2498032e-24)
(50.047342 0.0028841581 -3.7756665e-24)
(50.041034 0.002497173 -4.48859e-23)
(50.03556 0.0021401575 0)
(50.030848 0.0018137117 0)
(50.026835 0.0015194554 -2.3992517e-23)
(50.02346 0.0012610494 0)
(50.020657 0.001040907 0)
(50.018351 0.00086108048 0)
(50.016466 0.00071973072 -2.3176765e-24)
(50.01493 0.00061418176 1.6893573e-24)
(50.013679 0.00053945298 -1.1440159e-24)
(50.012705 0.00049088965 -3.067272e-26)
(50.01146 0.00045817249 8.8180343e-26)
(50.000724 -0.0024921691 -2.4141566e-23)
(50.003253 -0.0049950892 -1.6438822e-24)
(50.007917 -0.0075307223 -5.132873e-22)
(50.014605 -0.010121396 0)
(50.023273 -0.012745689 -7.4639418e-22)
(50.033931 -0.01533308 7.9788037e-23)
(50.046552 -0.0177564 0)
(50.060995 -0.019837604 -7.4386747e-23)
(50.076958 -0.021354622 1.8651987e-22)
(50.093943 -0.022037969 2.3334794e-22)
(50.111185 -0.021563449 0)
(50.127733 -0.019769175 0)
(50.142378 -0.016482873 -1.8441561e-21)
(50.153866 -0.01181957 1.5649624e-21)
(50.161157 -0.006197497 -1.3640135e-20)
(50.163556 -0.00020992861 0)
(50.161064 0.0054112108 -1.7274609e-21)
(50.15427 0.010020386 1.7240438e-21)
(50.144306 0.013311996 -1.1809987e-23)
(50.13238 0.015169902 -3.4635714e-22)
(50.119611 0.015862001 6.5006932e-22)
(50.106823 0.01569467 2.7031596e-22)
(50.094558 0.01494416 2.2544542e-24)
(50.083144 0.013829733 6.8170888e-22)
(50.072765 0.01252293 3.3707392e-22)
(50.063491 0.011155254 1.7763493e-23)
(50.055304 0.0098139702 -1.0354283e-23)
(50.04813 0.008544968 2.0980607e-22)
(50.041877 0.0073630046 4.3780025e-23)
(50.036458 0.0062692328 -7.1661634e-23)
(50.031803 0.0052639475 -7.4215328e-24)
(50.027852 0.0043523658 7.3175342e-23)
(50.024545 0.0035432581 0)
(50.021813 0.0028440381 -1.5404905e-23)
(50.019579 0.0022569445 8.3986921e-25)
(50.017761 0.0017761376 2.3175227e-24)
(50.016286 0.0013903848 -1.6431738e-24)
(50.015087 0.0010847286 3.5233289e-24)
(50.01415 0.00084715759 -7.550132e-25)
(50.012919 0.00067670949 -7.0698575e-26)
(50.000714 -0.0041373814 -4.5446363e-24)
(50.003208 -0.0083080875 1.4269046e-23)
(50.007816 -0.012548429 8.5703482e-22)
(50.014456 -0.016870175 -8.4864544e-22)
(50.02311 -0.021261751 1.874758e-21)
(50.033858 -0.025639109 0)
(50.046771 -0.029840329 0)
(50.061746 -0.033539324 0)
(50.078533 -0.036311173 1.7288555e-22)
(50.096673 -0.037684856 1.8277832e-21)
(50.115437 -0.037096008 -2.0539277e-21)
(50.133645 -0.034139681 2.8570533e-21)
(50.150011 -0.028532301 -2.4930196e-21)
(50.162915 -0.020420941 -8.6794052e-22)
(50.171041 -0.010535344 -2.881756e-20)
(50.17346 4.078201e-05 1.5307348e-20)
(50.170145 0.0099181542 0)
(50.161944 0.01788683 0)
(50.150338 0.023296974 -2.413528e-23)
(50.13687 0.026251724 2.4241492e-23)
(50.122889 0.027195104 -1.9677087e-21)
(50.109244 0.026708185 0)
(50.096421 0.0252797 -9.8040701e-22)
(50.084682 0.023280373 -1.2588804e-21)
(50.074158 0.020998158 -3.6187733e-22)
(50.064869 0.01865021 0)
(50.056744 0.016377471 2.2881795e-22)
(50.049668 0.014248143 -1.96769e-22)
(50.043521 0.012281253 -1.5401875e-22)
(50.038208 0.010476692 6.1110885e-23)
(50.033662 0.0088367091 -5.3213657e-23)
(50.029829 0.007373256 -4.5863679e-23)
(50.026648 0.0061023543 1.9887962e-24)
(50.024047 0.0050362349 1.336449e-23)
(50.021939 0.0041742562 1.014715e-23)
(50.020237 0.0035025006 -4.7974129e-25)
(50.018861 0.0029942438 7.1821325e-24)
(50.017745 0.0026162763 -4.8168498e-24)
(50.016893 0.0023365454 7.3748423e-25)
(50.015888 0.0021248455 1.7087664e-25)
(50.000694 -0.0057476419 -1.6894468e-23)
(50.003121 -0.011556533 3.7277737e-23)
(50.007618 -0.017507775 -1.4439611e-23)
(50.014146 -0.023633999 8.1353605e-24)
(50.022756 -0.029909783 -1.1328615e-21)
(50.033595 -0.036192926 0)
(50.04682 -0.042330614 -3.2316804e-21)
(50.062536 -0.047953267 -9.3886388e-21)
(50.080551 -0.052388481 2.0739462e-21)
(50.10046 -0.054871124 2.0484877e-21)
(50.121554 -0.054569561 -1.478656e-21)
(50.142532 -0.050519359 0)
(50.161733 -0.042430441 0)
(50.177034 -0.030330476 0)
(50.186645 -0.015300043 2.951326e-20)
(50.189045 0.00085363182 -1.5246349e-20)
(50.184249 0.015812745 0)
(50.173573 0.02753541 -5.5101866e-23)
(50.159168 0.035078226 5.5333192e-23)
(50.143248 0.038797488 -1.5298054e-21)
(50.127415 0.039595802 1.3146372e-21)
(50.112516 0.038426739 0)
(50.098905 0.03601405 9.8008388e-22)
(50.086733 0.032879311 1.6336645e-21)
(50.076046 0.029422346 0)
(50.066784 0.025938087 -1.6302811e-23)
(50.058797 0.022602755 2.2553668e-22)
(50.051901 0.019486264 -1.8437985e-22)
(50.045943 0.016595395 1.7249392e-22)
(50.040822 0.01392255 -1.605951e-23)
(50.036478 0.011474633 1.5204734e-22)
(50.032864 0.0092769214 5.7211066e-25)
(50.029918 0.0073615513 3.2398078e-23)
(50.027557 0.0057500768 -1.4921596e-24)
(50.02568 0.0044440994 1.0075231e-23)
(50.024183 0.0034207856 6.0430676e-25)
(50.022974 0.0026389757 -6.3330842e-24)
(50.021983 0.002046991 2.0534082e-24)
(50.021197 0.0015935649 0)
(50.020149 0.0012280297 -5.1625569e-25)
(50.00066 -0.0072959012 -1.2318861e-23)
(50.002973 -0.014691263 0)
(50.007284 -0.022321969 0)
(50.013597 -0.030272288 -8.1006347e-23)
(50.022048 -0.038549194 7.6964228e-22)
(50.032904 -0.047002785 -1.1704348e-21)
(50.046434 -0.055352819 2.9087381e-20)
(50.062932 -0.063269948 -2.0316504e-20)
(50.082515 -0.069930235 8.7769876e-21)
(50.104844 -0.074171933 2.0184084e-21)
(50.129271 -0.074670733 -2.5862347e-21)
(50.154319 -0.069914202 0)
(50.177949 -0.059241909 0)
(50.197188 -0.0423434 -1.0017604e-21)
(50.20906 -0.020691082 1.2534598e-21)
(50.211423 0.0027955367 8.0252357e-22)
(50.204095 0.024079694 -3.1148979e-21)
(50.189349 0.040146229 3.5130271e-20)
(50.170642 0.049661672 0)
(50.151166 0.053587874 1.5289496e-21)
(50.132832 0.053635657 2.6505456e-21)
(50.11633 0.051282618 -2.2816268e-21)
(50.101757 0.047513513 1.0682372e-23)
(50.089091 0.043006452 -7.4714631e-22)
(50.07826 0.038282796 0)
(50.069083 0.033710041 -5.3463757e-22)
(50.061292 0.029470163 -4.2211948e-22)
(50.054619 0.02559518 1.8434702e-22)
(50.048875 0.022044244 0)
(50.043966 0.018779598 1.026537e-22)
(50.039853 0.015800062 -1.6981091e-22)
(50.036504 0.013138026 -6.6098959e-23)
(50.033855 0.010835997 -3.2040621e-23)
(50.031805 0.0089209068 -2.0028836e-23)
(50.03023 0.0073910398 -2.1415447e-23)
(50.029002 0.0062117917 -7.9055906e-24)
(50.028016 0.0053256177 -6.6347792e-24)
(50.027197 0.0046624059 0)
(50.02655 0.0041528443 1.7267494e-24)
(50.025816 0.0037170782 3.4535606e-25)
(50.000606 -0.0087443018 -1.1541436e-22)
(50.002736 -0.017639819 -1.4147551e-22)
(50.006738 -0.026896637 1.9642869e-22)
(50.012678 -0.036671692 8.1000424e-23)
(50.020775 -0.047027911 0)
(50.03143 -0.05790425 4.0472699e-22)
(50.045111 -0.068960212 -7.4576966e-21)
(50.062375 -0.079718421 -7.3164638e-21)
(50.083718 -0.089474031 1.5589341e-20)
(50.109097 -0.096544813 0)
(50.137991 -0.098874606 5.1806136e-21)
(50.169031 -0.094146885 -5.132618e-21)
(50.199079 -0.080655932 0)
(50.224294 -0.057693615 0)
(50.239825 -0.027012611 0)
(50.241935 0.0065574152 0)
(50.230499 0.036347984 0)
(50.209344 0.05716203 -3.3024802e-20)
(50.184193 0.068074485 -1.9769861e-24)
(50.159845 0.071156448 0)
(50.138421 0.069402355 -2.6491386e-21)
(50.120123 0.064934414 4.3463108e-21)
(50.104595 0.058960873 1.7202232e-21)
(50.091576 0.052301946 1.3795471e-21)
(50.080833 0.045623531 3.3487427e-23)
(50.072007 0.039370319 4.7097727e-22)
(50.064647 0.033717925 0)
(50.058373 0.028640789 -2.7778647e-22)
(50.052968 0.024046504 -6.7489649e-24)
(50.048366 0.019871517 -1.4012315e-23)
(50.044569 0.016111944 7.6064351e-23)
(50.041569 0.012805215 6.722778e-23)
(50.039299 0.0099888883 0)
(50.037636 0.0076741883 2.132042e-23)
(50.036423 0.0058276274 0)
(50.035507 0.0043801883 8.3673877e-24)
(50.034765 0.0032374929 6.1707859e-24)
(50.034113 0.0023011808 1.4616844e-25)
(50.033533 0.0014984955 -1.8726787e-24)
(50.032593 0.0008298987 0)
(50.000526 -0.010040041 6.4397712e-23)
(50.002385 -0.020297187 -3.2833908e-22)
(50.00591 -0.031076804 -1.8916501e-22)
(50.011238 -0.042636889 0)
(50.018692 -0.055142969 2.2855152e-22)
(50.028809 -0.068631223 0)
(50.042312 -0.082888776 -2.33415e-21)
(50.060064 -0.097245575 1.3109065e-20)
(50.082961 -0.11099555 -1.8947138e-20)
(50.111874 -0.12236867 0)
(50.146593 -0.1283778 -2.5969514e-21)
(50.185866 -0.12534782 2.5873313e-21)
(50.225787 -0.10901953 -6.5034461e-20)
(50.260375 -0.078169257 0)
(50.281722 -0.034582818 0)
(50.283171 0.013629768 -9.7721297e-20)
(50.264642 0.054909404 9.2604007e-20)
(50.233162 0.081155462 0)
(50.198595 0.092246596 0)
(50.167842 0.093052319 3.2260528e-21)
(50.142786 0.088607857 0)
(50.122526 0.081685765 -2.2454193e-21)
(50.106004 0.073523026 -1.6034309e-21)
(50.092713 0.064963466 -1.3792073e-21)
(50.082246 0.056723739 0)
(50.073988 0.049217594 0)
(50.067252 0.042514963 0)
(50.06153 0.036497357 2.6419907e-22)
(50.0566 0.031049324 3.3783428e-24)
(50.052446 0.026150698 4.7634289e-23)
(50.049119 0.021870896 3.643229e-23)
(50.046622 0.018306844 2.8549454e-24)
(50.044868 0.015521293 -9.9855904e-25)
(50.043693 0.013506893 9.9867415e-25)
(50.0429 0.012181309 0)
(50.042307 0.011406545 0)
(50.041782 0.011014566 -8.1077861e-24)
(50.041271 0.010834207 -6.9077853e-24)
(50.040864 0.010696271 1.1294707e-25)
(50.040999 0.010352964 0)
(50.000415 -0.011116977 0)
(50.001887 -0.022528242 1.8136675e-22)
(50.004722 -0.034652675 3.3608161e-22)
(50.009118 -0.047879242 0)
(50.01549 -0.062523812 -9.7554446e-22)
(50.024523 -0.078804879 -3.0975543e-22)
(50.037181 -0.096747684 1.8629972e-22)
(50.054792 -0.11586081 1.224759e-22)
(50.07889 -0.13501452 0)
(50.11118 -0.15256082 -2.5480503e-20)
(50.153104 -0.1649438 1.5570042e-20)
(50.2037 -0.16608004 1.190283e-20)
(50.258402 -0.1483163 1.3321293e-19)
(50.308207 -0.10731748 6.0215699e-22)
(50.339215 -0.044317851 4.5157652e-19)
(50.339092 0.026302423 9.7351332e-20)
(50.30817 0.083581447 -9.2078967e-20)
(50.260246 0.11451826 1.1214372e-20)
(50.212432 0.12199031 -8.7469948e-21)
(50.174249 0.116406 3.4346278e-21)
(50.14594 0.10598615 -1.7834897e-22)
(50.124328 0.094134885 -1.7692624e-21)
(50.107339 0.08202274 -8.0967826e-23)
(50.094249 0.070499125 1.0015193e-21)
(50.084446 0.060171169 6.1641431e-23)
(50.076991 0.051119817 -1.7971438e-23)
(50.070962 0.043006601 1.9962905e-22)
(50.065813 0.035434979 -1.1690091e-22)
(50.061414 0.028205111 0)
(50.057864 0.021368496 -1.5721752e-22)
(50.055267 0.015133307 -4.1023152e-23)
(50.053608 0.0097243638 -2.032789e-24)
(50.052728 0.0052825362 1.6999382e-23)
(50.052374 0.0018114312 0)
(50.052274 -0.00081051752 -1.2874074e-24)
(50.052196 -0.0027994365 1.2875082e-24)
(50.051988 -0.0044125889 1.6559294e-23)
(50.051566 -0.0058977112 6.7934965e-24)
(50.050841 -0.0074105158 2.2267466e-24)
(50.048655 -0.0088855411 0)
(50.000268 -0.011896645 -1.4635699e-22)
(50.001228 -0.024170357 -2.9878834e-22)
(50.003125 -0.037361449 0)
(50.006198 -0.052014958 9.6428023e-23)
(50.01092 -0.068643058 1.2188526e-21)
(50.018085 -0.087735336 0)
(50.028902 -0.10966978 0)
(50.045128 -0.13449276 -5.7325983e-22)
(50.069303 -0.16131924 -7.0707358e-22)
(50.104503 -0.18791879 2.6297901e-20)
(50.154094 -0.21058833 -1.9443424e-20)
(50.219815 -0.22072222 0)
(50.296978 -0.20439054 -1.5181332e-19)
(50.372341 -0.15038174 -1.0569105e-19)
(50.420062 -0.056422262 -1.0179743e-18)
(50.416058 0.050586159 1.5478476e-19)
(50.362291 0.13148306 0)
(50.286821 0.16690273 -2.4820465e-20)
(50.219743 0.16758977 9.1491895e-21)
(50.173056 0.15338147 -6.2426166e-21)
(50.142413 0.1358308 -2.3820408e-22)
(50.12064 0.11819352 2.0072225e-21)
(50.104406 0.10163268 0)
(50.092702 0.087364183 -9.820023e-22)
(50.084438 0.075959528 -3.2486628e-23)
(50.078158 0.066964076 3.9319514e-22)
(50.072747 0.05940464 -1.8831001e-22)
(50.067823 0.052453449 1.2038945e-22)
(50.063561 0.045763308 3.1770995e-24)
(50.060305 0.039442872 7.3947522e-23)
(50.058262 0.033844157 0)
(50.057374 0.029337983 1.5670322e-25)
(50.057356 0.026155419 -1.7154231e-23)
(50.05781 0.024330802 -5.7729825e-25)
(50.058345 0.023709972 5.7734909e-25)
(50.058656 0.024004306 4.2535871e-25)
(50.058584 0.024845845 -8.877476e-24)
(50.058164 0.025827384 9.4954959e-24)
(50.057765 0.026536665 -2.2264394e-24)
(50.059273 0.02674557 0)
(50.000084 -0.012295933 3.2322603e-22)
(50.0004 -0.025045782 2.9880966e-22)
(50.001098 -0.038904471 7.2473898e-22)
(50.002417 -0.05458041 -1.292705e-21)
(50.004818 -0.072819603 0)
(50.009106 -0.094468783 1.12148e-21)
(50.016632 -0.12044289 -2.0748825e-21)
(50.029581 -0.15154094 1.5265812e-21)
(50.051405 -0.18804326 7.1133617e-22)
(50.08738 -0.22819226 -1.1935405e-20)
(50.144479 -0.26755925 4.8361342e-21)
(50.229429 -0.29623515 2.4026341e-20)
(50.342438 -0.29092008 6.305213e-20)
(50.460342 -0.21957188 1.0765353e-19)
(50.538365 -0.073301246 1.9192593e-19)
(50.525905 0.091851998 -1.5458279e-19)
(50.431345 0.19936441 1.7103513e-19)
(50.312538 0.22584427 2.9598803e-22)
(50.220521 0.2058186 6.419896e-21)
(50.166078 0.17576632 0)
(50.134696 0.14781544 -1.9095932e-22)
(50.113947 0.1219654 1.912021e-22)
(50.099941 0.098614642 0)
(50.091429 0.079301939 0)
(50.086312 0.064402463 0)
(50.082277 0.052785908 -3.606751e-22)
(50.078069 0.042838639 0)
(50.073699 0.033385093 0)
(50.069869 0.02400759 1.1083714e-22)
(50.067297 0.014904185 -1.6255131e-22)
(50.066321 0.0065721674 5.7015436e-23)
(50.066819 -0.00048273431 0)
(50.06833 -0.0059259731 3.2170068e-24)
(50.070259 -0.0096559266 0)
(50.072046 -0.011784054 0)
(50.073269 -0.012574679 0)
(50.073671 -0.012389372 0)
(50.073127 -0.011673006 -9.1232838e-24)
(50.071709 -0.011063893 -6.5700231e-24)
(50.069096 -0.011874778 1.025839e-25)
(49.999872 -0.012237069 3.0353725e-23)
(49.999431 -0.024984081 -4.2534057e-22)
(49.998697 -0.038978893 -7.248421e-22)
(49.997849 -0.05507339 -8.4508488e-23)
(49.997227 -0.074249861 8.083829e-22)
(49.997477 -0.097767012 -1.874906e-21)
(49.999848 -0.12724365 -1.5710467e-21)
(50.006685 -0.16464491 -2.28365e-21)
(50.022275 -0.21209628 0)
(50.054023 -0.27065829 0)
(50.114582 -0.33654578 0)
(50.220422 -0.39957728 -6.2146121e-20)
(50.38679 -0.42410335 8.530911e-20)
(50.585804 -0.33330731 -2.8102704e-20)
(50.717708 -0.084446572 3.7167573e-19)
(50.677703 0.19741236 0)
(50.500653 0.35020244 -1.7111255e-19)
(50.312595 0.35099925 4.2960538e-20)
(50.195114 0.28973157 -9.1201241e-21)
(50.141344 0.23391671 0)
(50.114433 0.19244889 1.0740206e-22)
(50.096754 0.1585767 -1.0755684e-22)
(50.08634 0.13064265 0)
(50.082162 0.10941586 -6.4367366e-23)
(50.080755 0.094262521 -5.7237816e-25)
(50.078894 0.08314904 1.0806269e-22)
(50.075424 0.073945332 6.6048878e-24)
(50.071025 0.065267656 -1.6851092e-22)
(50.067091 0.056607595 1.0144403e-22)
(50.064783 0.048070437 2.478989e-22)
(50.064576 0.040024413 -5.7017068e-23)
(50.066269 0.032827183 -6.6997008e-23)
(50.069217 0.026689909 -5.7159172e-24)
(50.072626 0.02164598 0)
(50.075778 0.01759682 1.9394068e-24)
(50.078147 0.014373449 -3.1401586e-24)
(50.079413 0.011798589 1.2007142e-24)
(50.079365 0.0097148113 1.8314131e-23)
(50.077599 0.0079518234 6.0972255e-24)
(50.072643 0.0059808187 0)
(49.99964 -0.011664334 -2.0724421e-22)
(49.998379 -0.023855437 4.2539583e-22)
(49.996061 -0.037333685 -4.7450857e-22)
(49.992741 -0.05303323 5.2915631e-22)
(49.988501 -0.072112699 9.8534785e-22)
(49.983581 -0.096203694 -4.7854338e-22)
(49.978706 -0.12767863 -2.2799153e-21)
(49.975696 -0.16997681 8.4762059e-21)
(49.97873 -0.22804453 -7.2621672e-23)
(49.996685 -0.30797335 1.4426089e-21)
(50.048153 -0.41403359 1.8734312e-21)
(50.171101 -0.54286887 -7.116706e-20)
(50.419846 -0.6446454 2.2023164e-20)
(50.780716 -0.55557779 1.9048844e-19)
(51.028971 -0.13430877 0)
(50.928224 0.30909775 -4.3984182e-19)
(50.583911 0.50126212 5.7228098e-19)
(50.275637 0.45044918 -3.3321211e-20)
(50.132969 0.33361196 1.8346962e-21)
(50.096047 0.24519706 2.0390845e-21)
(50.084126 0.18457974 0)
(50.075369 0.13937685 0)
(50.072576 0.10506468 6.5401556e-22)
(50.075404 0.079705539 -4.8662131e-22)
(50.079262 0.061071199 -1.3367341e-23)
(50.080505 0.046934869 -1.0750498e-22)
(50.078455 0.035716767 0)
(50.074563 0.026603663 1.7219449e-22)
(50.070852 0.019328195 -2.225739e-22)
(50.068821 0.013846909 -1.175929e-22)
(50.06903 0.010086017 1.1986934e-22)
(50.071215 0.0078217931 6.7692418e-23)
(50.07463 0.0066718964 1.7976683e-24)
(50.078401 0.0061752375 -7.7493947e-25)
(50.081789 0.005882797 1.9388653e-23)
(50.084303 0.0054510745 -1.3546611e-23)
(50.085693 0.0046994742 5.6096813e-25)
(50.085843 0.003661065 -1.8872076e-23)
(50.084491 0.0026799953 -4.475878e-24)
(50.080682 0.0027837991 8.7792319e-25)
(49.999416 -0.010561401 5.3162783e-24)
(49.997345 -0.021612248 1.2799113e-22)
(49.993443 -0.033845877 5.6012865e-22)
(49.987576 -0.048169905 -1.6185179e-21)
(49.979445 -0.065772471 5.775131e-22)
(49.968614 -0.088455947 2.3560994e-21)
(49.954724 -0.11910765 3.1586425e-21)
(49.937956 -0.16250641 -3.405807e-21)
(49.920208 -0.22690071 7.1904034e-21)
(49.908668 -0.3262426 9.2841798e-21)
(49.922889 -0.48302931 -8.0345501e-21)
(50.035948 -0.73241832 7.2697351e-06)
(50.387361 -1.0370712 -3.8231375e-06)
(51.035647 -0.86197207 -9.6476833e-05)
(51.47935 0.093395555 -0.00029463178)
(51.241351 0.78484198 -1.3830142e-05)
(50.627909 0.85881756 -6.2158608e-05)
(50.16499 0.61212957 2.6533375e-08)
(50.013815 0.42509948 -8.9382812e-08)
(50.010184 0.30802278 9.1357969e-21)
(50.021815 0.23031123 0)
(50.027609 0.1800708 6.8935654e-23)
(50.034911 0.14735526 5.8876186e-22)
(50.044734 0.12353192 1.6334722e-21)
(50.053355 0.1035235 4.4241811e-22)
(50.058126 0.08552071 0)
(50.059151 0.069575833 0)
(50.058277 0.056413751 1.9833539e-22)
(50.057584 0.046714148 -2.1210972e-23)
(50.058402 0.040758176 1.4969721e-22)
(50.061048 0.038325971 -1.1990112e-22)
(50.065046 0.038761585 1.7621464e-24)
(50.06954 0.041141138 -1.7622289e-24)
(50.073677 0.044465536 0)
(50.076843 0.04783558 -1.8021321e-23)
(50.078752 0.050574014 1.2953206e-23)
(50.079419 0.052294519 -2.8946865e-25)
(50.079099 0.052941838 3.8249982e-25)
(50.078276 0.052841472 4.3830534e-24)
(50.078723 0.052955045 -8.7776277e-25)
(49.999221 -0.0089703602 -6.2003441e-23)
(49.996452 -0.018330922 -6.7843083e-23)
(49.99117 -0.028603845 -4.1585166e-22)
(49.983034 -0.040526051 -6.5232597e-22)
(49.97131 -0.055082135 -6.5237509e-23)
(49.954722 -0.073841634 7.1753761e-22)
(49.931343 -0.099497437 -1.283227e-21)
(49.898375 -0.13696424 -4.1241472e-21)
(49.851797 -0.19590103 2.2444191e-21)
(49.787697 -0.29631093 -1.2091246e-20)
(49.703069 -0.47808403 -1.8364328e-05)
(49.614372 -0.94733066 -3.4477774e-05)
(49.727933 -1.2769502 -0.34819208)
(50.756985 -1.8768936 0.37243662)
(52.271012 -0.61538285 2.1562075)
(52.016454 1.0095045 2.2696713)
(50.809804 1.4711946 1.1603386)
(49.941801 0.95949322 0.058137892)
(49.809229 0.43109981 -4.3861726e-08)
(49.869726 0.27714914 -1.2871755e-07)
(49.917391 0.17378066 0)
(49.948723 0.11260382 0)
(49.969495 0.077989907 -1.3151983e-21)
(49.983701 0.05460541 -2.4435173e-22)
(49.992808 0.034202691 -4.4309058e-22)
(49.997729 0.014495706 3.2070707e-22)
(50.00004 -0.0039204892 2.9327701e-22)
(50.00175 -0.019663011 -4.4546847e-22)
(50.004489 -0.031582458 0)
(50.008951 -0.039143518 -1.3944638e-22)
(50.014861 -0.042468984 0)
(50.021323 -0.04220672 0)
(50.027281 -0.039311486 -1.7821065e-23)
(50.031879 -0.034831296 1.5498513e-24)
(50.03466 -0.029721213 -1.5498795e-24)
(50.035583 -0.024730075 0)
(50.03495 -0.020333443 0)
(50.033275 -0.016723703 7.2199519e-24)
(50.031203 -0.013828204 1.7657164e-24)
(50.028255 -0.011311793 2.8271151e-25)
(49.999088 -0.0069982433 -5.5739716e-23)
(49.995838 -0.014233424 -1.7521977e-23)
(49.9896 -0.021965741 -7.769173e-23)
(49.979885 -0.030620654 1.7759784e-22)
(49.965625 -0.040727856 2.1732694e-22)
(49.944862 -0.053116734 -3.9506301e-22)
(49.914255 -0.069210852 1.0608812e-21)
(49.867922 -0.091657868 1.5928462e-21)
(49.79426 -0.12588359 -2.6731458e-21)
(49.67345 -0.18393321 -2.5373869e-21)
(49.410614 -0.2908606 1.8664873e-05)
(49.219693 -0.46699332 -0.76880184)
(48.608858 -1.5286261 -1.2991577)
(49.391842 -3.7320346 -0.77153768)
(54.181721 -1.5777435 4.0124039)
(53.458748 1.9429429 3.6724082)
(50.94656 2.8523962 1.4485863)
(49.004124 1.0737238 -0.84853047)
(49.288464 0.46075269 -0.52100889)
(48.66945 0.32539774 1.0490668e-08)
(48.763793 0.24594852 -1.4550512e-22)
(48.832827 0.1956859 1.0394439e-21)
(48.874314 0.16437184 6.321888e-23)
(48.89625 0.14223897 -8.3842533e-22)
(48.906811 0.12375228 3.5044208e-24)
(48.911402 0.10700525 -3.0085232e-22)
(48.91351 0.091904903 -3.0525349e-22)
(48.915552 0.078911653 4.33514e-22)
(48.918894 0.068434131 0)
(48.923743 0.060601237 0)
(48.929349 0.055233606 -1.6683537e-25)
(48.934472 0.051921204 4.6581642e-24)
(48.937878 0.050128219 2.8734791e-23)
(48.938706 0.049305374 5.1708909e-25)
(48.936614 0.048967072 1.5749996e-23)
(48.931765 0.048745347 7.3193219e-25)
(48.924703 0.048410201 -2.1710783e-25)
(48.91622 0.047873546 -7.474095e-24)
(48.907327 0.047202354 -1.719757e-24)
(48.896831 0.046645601 -1.7902578e-25)
(49.999034 -0.0048086997 -1.9512121e-23)
(49.995591 -0.0096735835 2.6829048e-22)
(49.988986 -0.014547248 -8.1600025e-23)
(49.978704 -0.019471318 5.4697618e-22)
(49.963619 -0.024386446 2.288399e-22)
(49.94166 -0.029100307 -4.1586054e-22)
(49.909283 -0.033126676 5.8334648e-22)
(49.86022 -0.035275264 -1.6073473e-21)
(49.782131 -0.032637194 2.282995e-21)
(49.653733 -0.017444084 1.367207e-21)
(49.37346 0.027168796 2.1673207e-05)
(49.090807 0.055304462 -0.93047028)
(48.144957 0.14552141 -1.8655499)
(41.664173 1.3449041 -7.9395259)
(45.73729 -0.23030832 -2.2876644)
(47.669452 -0.12638827 -0.84768312)
(48.769243 -0.07573933 -1.4680277e-07)
(48.869137 -0.046814188 -2.6958361e-21)
(48.940497 -0.033680846 -9.6942704e-22)
(48.983749 -0.030171924 3.5202418e-23)
(49.006798 -0.029279057 2.071203e-23)
(49.018042 -0.027620474 -2.9573793e-23)
(49.023193 -0.024567445 2.2503232e-22)
(49.025916 -0.020645877 8.7024538e-23)
(49.028672 -0.016631677 -2.0163444e-22)
(49.032798 -0.013188641 -1.6794346e-24)
(49.038456 -0.010745921 -8.1509344e-24)
(49.044868 -0.0094749629 -2.270711e-25)
(49.050791 -0.0093207273 -4.2005238e-24)
(49.055015 -0.010061416 -9.9872352e-24)
(49.056711 -0.01138082 9.7426765e-25)
(49.055572 -0.012937541 -1.7515168e-23)
(49.05179 -0.014418815 6.4451326e-25)
(49.04593 -0.015580205 -1.0234192e-24)
(49.03879 -0.016267923 -3.8499532e-25)
(49.03134 -0.016445465 0)
(49.022956 -0.016292369 -1.1933261e-25)
(49.999065 -0.0025939829 1.6028459e-22)
(49.995737 -0.0050719133 -6.6001899e-22)
(49.989387 -0.0070967331 1.6767635e-22)
(49.979607 -0.0083580164 -3.6029513e-22)
(49.965506 -0.0082789435 8.3965194e-22)
(49.945509 -0.0058185824 -1.7916219e-21)
(49.91717 0.00098974111 -3.0068681e-21)
(49.876756 0.016026854 5.121255e-21)
(49.818519 0.047330611 -2.6750075e-21)
(49.734869 0.11274918 2.6600388e-22)
(49.615493 0.24883301 -2.1363893e-05)
(49.454975 0.6662687 -4.501063e-05)
(49.358409 1.1276757 -0.90297095)
(50.47416 2.5276556 -0.30044844)
(52.68597 0.45879453 2.370753)
(52.049584 -1.5007431 2.2987897)
(50.330915 -1.6654041 0.63944483)
(49.497744 -0.67169453 -0.64330206)
(49.734172 -0.16917388 1.3692517e-07)
(49.836976 -0.06374505 6.0024828e-07)
(49.904706 0.003148075 2.5608631e-21)
(49.948459 0.035398392 0)
(49.977849 0.04666772 0)
(49.997754 0.05104618 0)
(50.010552 0.055801396 -2.2133157e-23)
(50.018082 0.062534894 -1.6951117e-22)
(50.022507 0.070232881 -6.8281466e-23)
(50.02606 0.077245576 1.4133278e-22)
(50.030377 0.082185428 1.7296849e-24)
(50.03609 0.08425411 1.5066718e-23)
(50.042885 0.083286085 2.9617384e-23)
(50.04989 0.07964218 -9.8715885e-25)
(50.056122 0.074028242 1.8623701e-25)
(50.060829 0.067297704 -4.310774e-24)
(50.063663 0.060281355 -1.1076865e-24)
(50.06468 0.053662451 -3.3862008e-24)
(50.064255 0.047906767 3.8851067e-25)
(50.062955 0.043233531 5.9624974e-25)
(50.061453 0.039634536 -3.3901667e-25)
(50.059704 0.03689938 -1.2621479e-26)
(49.999167 -0.00053702217 -7.3628502e-25)
(49.996212 -0.00082322953 4.9513336e-22)
(49.99063 -0.00030343613 -1.390641e-21)
(49.982195 0.0015752108 7.0703853e-22)
(49.970396 0.0056925908 0)
(49.954399 0.013489202 1.8190723e-21)
(49.933187 0.027416205 2.5653099e-21)
(49.905864 0.051753998 6.0946389e-22)
(49.872548 0.094159941 4.5368998e-21)
(49.837291 0.16853964 0)
(49.814939 0.29875299 0)
(49.869712 0.52611083 7.7773027e-06)
(50.139614 0.8471191 2.6189853e-05)
(50.701942 0.75574262 -7.1244781e-05)
(51.099841 -0.072731876 -0.00022598572)
(50.873442 -0.64137614 -6.0340425e-05)
(50.32665 -0.62775002 -5.3693865e-05)
(49.965792 -0.36468182 2.4550834e-07)
(49.89923 -0.20276456 3.0569834e-07)
(49.943128 -0.11444453 -6.861923e-21)
(49.980557 -0.062093397 0)
(50.003458 -0.033960056 2.3683541e-21)
(50.023496 -0.020668411 1.3066245e-22)
(50.042775 -0.013703428 1.5020275e-21)
(50.058455 -0.0081088666 -6.2036993e-22)
(50.06881 -0.0023068133 5.6220545e-22)
(50.07458 0.0033859207 0)
(50.077873 0.008001192 -1.1312948e-22)
(50.080786 0.01064087 -1.7763235e-24)
(50.084586 0.010817937 -1.3882918e-23)
(50.089561 0.0085566555 -2.8956803e-23)
(50.095281 0.0043301579 0)
(50.101004 -0.0010987405 -1.4561119e-23)
(50.106029 -0.0068657712 -4.6841735e-25)
(50.109899 -0.012177324 2.3834402e-25)
(50.112468 -0.01643257 3.3065401e-24)
(50.11386 -0.019299404 4.4412218e-24)
(50.114416 -0.020756087 1.8351513e-24)
(50.114682 -0.02115192 3.5554014e-25)
(50.117077 -0.021478353 3.2618252e-26)
(49.99932 0.0012211911 -4.7914544e-22)
(49.996913 0.0027752062 -4.9913136e-22)
(49.99243 0.0053418654 1.7135043e-21)
(49.985829 0.0095857417 7.0058307e-22)
(49.976975 0.016469502 3.0307259e-21)
(49.965695 0.027435437 -1.5626594e-21)
(49.952071 0.04469526 7.0183618e-21)
(49.936967 0.07163173 -3.1436524e-21)
(49.923125 0.11330026 -6.7332652e-21)
(49.917279 0.17677636 -3.3655804e-21)
(49.935617 0.26881781 4.4240788e-21)
(50.012292 0.39187334 7.6592003e-20)
(50.20242 0.5047614 0)
(50.503899 0.45797009 0)
(50.719339 0.11044434 -8.3158025e-19)
(50.625481 -0.25472209 1.2795096e-20)
(50.326646 -0.38349998 -1.0989147e-20)
(50.087031 -0.2980612 6.0971588e-21)
(50.007175 -0.18002992 2.1143664e-20)
(50.012238 -0.10378937 6.2403839e-21)
(50.02658 -0.057452586 3.6506594e-21)
(50.036206 -0.026203978 -2.3647282e-21)
(50.047519 -0.0052369518 -1.6450038e-21)
(50.06135 0.0077156553 -2.6076184e-22)
(50.073875 0.015195277 1.884441e-21)
(50.082221 0.019531038 -9.4834821e-23)
(50.086273 0.022243646 0)
(50.087738 0.024016422 0)
(50.088678 0.024992459 -1.301073e-23)
(50.09055 0.025114133 2.4291936e-23)
(50.093903 0.024375761 -1.9991971e-23)
(50.098529 0.02293418 8.7093736e-24)
(50.103801 0.021103011 1.6504343e-23)
(50.109008 0.019273386 3.1343793e-24)
(50.113574 0.017815768 5.4792726e-24)
(50.117153 0.016995486 -1.1519614e-24)
(50.119611 0.016913139 -3.7625902e-24)
(50.120913 0.017454769 -8.5381062e-24)
(50.120829 0.018183051 -4.2509985e-25)
(50.11895 0.017902487 6.1241786e-26)
(49.999495 0.0025966317 3.1885735e-22)
(49.997719 0.0055559228 -1.576999e-23)
(49.994472 0.0095945284 6.5572581e-22)
(49.989859 0.015379477 -1.3347003e-21)
(49.984026 0.023798996 -5.6368245e-21)
(49.977251 0.036064799 -3.0809111e-21)
(49.970246 0.05383675 -3.2465856e-21)
(49.964632 0.079297831 4.0765403e-21)
(49.963681 0.11505212 -4.4038988e-22)
(49.973682 0.16343579 -6.7397028e-21)
(50.005983 0.22366033 0)
(50.076887 0.2891107 8.8056789e-20)
(50.204083 0.32911441 0)
(50.367338 0.27458526 -2.7602516e-21)
(50.479432 0.08054433 5.0489112e-19)
(50.444346 -0.1418133 5.7519328e-20)
(50.29325 -0.24528742 -1.6541906e-20)
(50.151997 -0.21690025 -5.9437808e-21)
(50.077253 -0.14949742 -5.4384713e-21)
(50.05739 -0.099474378 0)
(50.054801 -0.067552661 -6.0372308e-21)
(50.055133 -0.044186599 -1.8768862e-22)
(50.05889 -0.027012548 1.8316443e-21)
(50.06617 -0.016310898 -1.4223958e-21)
(50.074193 -0.010993597 -1.1770295e-21)
(50.080323 -0.0087645476 -5.3172154e-22)
(50.083831 -0.0074413199 3.0182831e-23)
(50.085599 -0.0056991658 -3.942994e-22)
(50.08706 -0.0031162653 1.9605887e-22)
(50.089352 0.00013532296 -1.2459563e-23)
(50.092952 0.0036469018 -8.137602e-24)
(50.097716 0.0070313916 -3.6699652e-23)
(50.10311 0.010046273 0)
(50.108483 0.012609608 0)
(50.113269 0.014756761 -5.038751e-24)
(50.117079 0.016577047 8.4447511e-25)
(50.1197 0.018161996 -1.7754529e-24)
(50.120996 0.019579367 1.8462458e-24)
(50.120545 0.020910924 -1.3808045e-25)
(50.117221 0.022575644 1.3808327e-25)
(49.999674 0.0035595316 3.0939821e-22)
(49.998533 0.0074704145 -9.5460663e-22)