# vtk DataFile Version 3.0
Time Step 96, Physical Time = 0.000960s, Residual = 3.83e-03
ASCII
DATASET UNSTRUCTURED_GRID
POINTS 5000 float
0.318712 0.385257 0.000000
-0.318712 0.385257 0.000000
-0.318712 -0.385257 0.000000
0.318712 -0.385257 0.000000
0.093691 0.491144 0.000000
-0.093691 0.491144 0.000000
-0.093691 -0.491144 0.000000
0.093691 -0.491144 0.000000
0.404508 0.293893 0.000000
-0.404508 0.293893 0.000000
-0.404508 -0.293893 0.000000
0.404508 -0.293893 0.000000
0.438153 0.240877 0.000000
-0.438153 0.240877 0.000000
-0.438153 -0.240877 0.000000
0.438153 -0.240877 0.000000
0.500000 0.000000 0.000000
-0.500000 -0.000000 0.000000
0.364484 0.342274 0.000000
-0.364484 0.342274 0.000000
-0.364484 -0.342274 0.000000
0.364484 -0.342274 0.000000
0.496057 0.062667 0.000000
-0.496057 0.062667 0.000000
-0.496057 -0.062667 0.000000
0.496057 -0.062667 0.000000
0.212890 0.452414 0.000000
-0.212890 0.452414 0.000000
-0.212890 -0.452414 0.000000
0.212890 -0.452414 0.000000
0.154508 0.475528 0.000000
-0.154508 0.475528 0.000000
-0.154508 -0.475528 0.000000
0.154508 -0.475528 0.000000
0.267913 0.422164 0.000000
-0.267913 0.422164 0.000000
-0.267913 -0.422164 0.000000
0.267913 -0.422164 0.000000
0.031395 0.499013 0.000000
-0.031395 0.499013 0.000000
-0.031395 -0.499013 0.000000
0.031395 -0.499013 0.000000
0.464888 0.184062 0.000000
-0.464888 0.184062 0.000000
-0.464888 -0.184062 0.000000
0.464888 -0.184062 0.000000
0.484292 0.124345 0.000000
-0.484292 0.124345 0.000000
-0.484292 -0.124345 0.000000
0.484292 -0.124345 0.000000
-0.031454 0.499951 0.000000
0.438977 0.241329 0.000000
-0.268417 0.422957 0.000000
0.365169 0.342917 0.000000
-0.496990 -0.062784 0.000000
0.319311 -0.385981 0.000000
0.405269 0.294445 0.000000
-0.093867 0.492067 0.000000
0.500940 -0.000000 0.000000
-0.213290 0.453264 0.000000
-0.154799 0.476422 0.000000
0.031454 0.499951 0.000000
0.465762 0.184408 0.000000
0.319311 0.385981 0.000000
0.365169 -0.342917 0.000000
0.405269 -0.294445 0.000000
-0.365169 0.342917 0.000000
-0.319311 0.385981 0.000000
0.268417 0.422957 0.000000
0.213290 0.453264 0.000000
-0.319311 -0.385981 0.000000
0.154799 -0.476422 0.000000
-0.485202 -0.124579 0.000000
0.154799 0.476422 0.000000
0.268417 -0.422957 0.000000
0.093867 0.492067 0.000000
-0.031454 -0.499951 0.000000
-0.500940 0.000000 0.000000
0.438977 -0.241329 0.000000
-0.438977 -0.241329 0.000000
0.093867 -0.492067 0.000000
-0.485202 0.124579 0.000000
0.485202 0.124579 0.000000
-0.496990 0.062784 0.000000
0.213290 -0.453264 0.000000
0.031454 -0.499951 0.000000
0.496990 -0.062784 0.000000
0.465762 -0.184408 0.000000
-0.465762 -0.184408 0.000000
-0.213290 -0.453264 0.000000
-0.093867 -0.492067 0.000000
-0.405269 -0.294445 0.000000
0.496990 0.062784 0.000000
0.485202 -0.124579 0.000000
-0.154799 -0.476422 0.000000
-0.365169 -0.342917 0.000000
-0.465762 0.184408 0.000000
-0.438977 0.241329 0.000000
-0.405269 0.294445 0.000000
-0.268417 -0.422957 0.000000
-0.031523 0.501039 0.000000
0.439932 0.241854 0.000000
-0.269001 0.423877 0.000000
0.365964 0.343663 0.000000
-0.498071 -0.062921 0.000000
0.320005 -0.386820 0.000000
0.406150 0.295085 0.000000
-0.094071 0.493137 0.000000
0.502029 -0.000000 0.000000
-0.213754 0.454250 0.000000
-0.155136 0.477458 0.000000
0.031523 0.501039 0.000000
0.466775 0.184809 0.000000
0.365964 -0.343663 0.000000
0.406150 -0.295085 0.000000
0.320005 0.386820 0.000000
-0.365964 0.343663 0.000000
-0.320005 0.386820 0.000000
0.269001 0.423877 0.000000
0.213754 0.454250 0.000000
-0.320005 -0.386820 0.000000
0.155136 -0.477458 0.000000
-0.486257 -0.124850 0.000000
0.155136 0.477458 0.000000
0.269001 -0.423877 0.000000
0.094071 0.493137 0.000000
-0.031523 -0.501039 0.000000
-0.502029 0.000000 0.000000
0.439932 -0.241854 0.000000
-0.439932 -0.241854 0.000000
0.094071 -0.493137 0.000000
-0.486257 0.124850 0.000000
0.486257 0.124850 0.000000
-0.498071 0.062921 0.000000
0.213754 -0.454250 0.000000
0.031523 -0.501039 0.000000
0.466775 -0.184809 0.000000
0.498071 -0.062921 0.000000
-0.466775 -0.184809 0.000000
-0.213754 -0.454250 0.000000
-0.094071 -0.493137 0.000000
-0.406150 -0.295085 0.000000
0.498071 0.062921 0.000000
-0.155136 -0.477458 0.000000
0.486257 -0.124850 0.000000
-0.365964 -0.343663 0.000000
-0.466775 0.184809 0.000000
-0.439932 0.241854 0.000000
-0.406150 0.295085 0.000000
-0.269001 -0.423877 0.000000
-0.031604 0.502329 0.000000
0.441064 0.242477 0.000000
-0.269693 0.424969 0.000000
0.366906 0.344547 0.000000
-0.499353 -0.063083 0.000000
0.320829 -0.387816 0.000000
0.407196 0.295845 0.000000
-0.094313 0.494407 0.000000
0.503322 -0.000000 0.000000
-0.214304 0.455419 0.000000
-0.155535 0.478688 0.000000
0.031604 0.502329 0.000000
0.467977 0.185285 0.000000
0.366906 -0.344547 0.000000
0.407196 -0.295845 0.000000
0.320829 0.387816 0.000000
0.269693 0.424969 0.000000
-0.366906 0.344547 0.000000
-0.320829 0.387816 0.000000
0.214304 0.455419 0.000000
-0.320829 -0.387816 0.000000
0.155535 -0.478688 0.000000
-0.487509 -0.125171 0.000000
0.155535 0.478688 0.000000
0.269693 -0.424969 0.000000
-0.031604 -0.502329 0.000000
0.094313 0.494407 0.000000
-0.503322 0.000000 0.000000
0.441064 -0.242477 0.000000
-0.441064 -0.242477 0.000000
-0.487509 0.125171 0.000000
0.094313 -0.494407 0.000000
0.487509 0.125171 0.000000
-0.499353 0.063083 0.000000
0.214304 -0.455419 0.000000
0.031604 -0.502329 0.000000
0.467977 -0.185285 0.000000
0.499353 -0.063083 0.000000
-0.467977 -0.185285 0.000000
-0.214304 -0.455419 0.000000
-0.094313 -0.494407 0.000000
-0.407196 -0.295845 0.000000
0.499353 0.063083 0.000000
-0.155535 -0.478688 0.000000
0.487509 -0.125171 0.000000
-0.467977 0.185285 0.000000
-0.366906 -0.344547 0.000000
-0.441064 0.242477 0.000000
-0.407196 0.295845 0.000000
-0.269693 -0.424969 0.000000
-0.031700 0.503862 0.000000
0.442411 0.243217 0.000000
-0.270517 0.426266 0.000000
0.368026 0.345599 0.000000
-0.500877 -0.063276 0.000000
0.321809 -0.389000 0.000000
0.408439 0.296748 0.000000
-0.094601 0.495916 0.000000
0.504858 -0.000000 0.000000
-0.214958 0.456810 0.000000
-0.156010 0.480149 0.000000
0.031700 0.503862 0.000000
0.469405 0.185851 0.000000
0.368026 -0.345599 0.000000
0.408439 -0.296748 0.000000
0.321809 0.389000 0.000000
0.270517 0.426266 0.000000
-0.368026 0.345599 0.000000
-0.321809 0.389000 0.000000
0.214958 0.456810 0.000000
-0.321809 -0.389000 0.000000
0.156010 -0.480149 0.000000
0.270517 -0.426266 0.000000
-0.488997 -0.125553 0.000000
0.156010 0.480149 0.000000
-0.031700 -0.503862 0.000000
0.094601 0.495916 0.000000
-0.504858 0.000000 0.000000
0.442411 -0.243217 0.000000
-0.442411 -0.243217 0.000000
-0.488997 0.125553 0.000000
0.094601 -0.495916 0.000000
0.488997 0.125553 0.000000
-0.500877 0.063276 0.000000
0.214958 -0.456810 0.000000
0.031700 -0.503862 0.000000
0.469405 -0.185851 0.000000
0.500877 -0.063276 0.000000
-0.469405 -0.185851 0.000000
-0.214958 -0.456810 0.000000
-0.094601 -0.495916 0.000000
-0.408439 -0.296748 0.000000
-0.469405 0.185851 0.000000
0.500877 0.063276 0.000000
-0.156010 -0.480149 0.000000
0.488997 -0.125553 0.000000
-0.368026 -0.345599 0.000000
-0.442411 0.243217 0.000000
-0.408439 0.296748 0.000000
-0.270517 -0.426266 0.000000
-0.031815 0.505686 0.000000
0.444012 0.244098 0.000000
-0.271496 0.427809 0.000000
0.369358 0.346850 0.000000
-0.502691 -0.063505 0.000000
0.322974 -0.390408 0.000000
0.409918 0.297823 0.000000
-0.094943 0.497711 0.000000
0.506686 -0.000000 0.000000
-0.215736 0.458463 0.000000
-0.156575 0.481887 0.000000
0.031815 0.505686 0.000000
0.369358 -0.346850 0.000000
0.409918 -0.297823 0.000000
0.471105 0.186524 0.000000
0.322974 0.390408 0.000000
0.271496 0.427809 0.000000
-0.369358 0.346850 0.000000
-0.322974 0.390408 0.000000
0.215736 0.458463 0.000000
0.156575 -0.481887 0.000000
-0.322974 -0.390408 0.000000
0.271496 -0.427809 0.000000
-0.490768 -0.126008 0.000000
0.156575 0.481887 0.000000
-0.031815 -0.505686 0.000000
0.094943 0.497711 0.000000
-0.506686 0.000000 0.000000
0.444012 -0.244098 0.000000
-0.490768 0.126008 0.000000
-0.444012 -0.244098 0.000000
0.094943 -0.497711 0.000000
0.490768 0.126008 0.000000
-0.502691 0.063505 0.000000
0.215736 -0.458463 0.000000
0.031815 -0.505686 0.000000
0.471105 -0.186524 0.000000
-0.471105 -0.186524 0.000000
0.502691 -0.063505 0.000000
-0.215736 -0.458463 0.000000
-0.094943 -0.497711 0.000000
-0.409918 -0.297823 0.000000
-0.471105 0.186524 0.000000
0.502691 0.063505 0.000000
-0.156575 -0.481887 0.000000
0.490768 -0.126008 0.000000
-0.369358 -0.346850 0.000000
-0.444012 0.244098 0.000000
-0.409918 0.297823 0.000000
-0.271496 -0.427809 0.000000
-0.031952 0.507855 0.000000
0.445917 0.245145 0.000000
-0.272661 0.429644 0.000000
0.370943 0.348338 0.000000
-0.504847 -0.063777 0.000000
0.324359 -0.392083 0.000000
0.411676 0.299100 0.000000
-0.095351 0.499846 0.000000
0.508859 -0.000000 0.000000
-0.216662 0.460430 0.000000
-0.157246 0.483954 0.000000
0.031952 0.507855 0.000000
0.370943 -0.348338 0.000000
0.411676 -0.299100 0.000000
0.324359 0.392083 0.000000
0.473126 0.187324 0.000000
0.272661 0.429644 0.000000
-0.370943 0.348338 0.000000
-0.324359 0.392083 0.000000
0.216662 0.460430 0.000000
0.157246 -0.483954 0.000000
-0.324359 -0.392083 0.000000
0.272661 -0.429644 0.000000
0.157246 0.483954 0.000000
-0.492873 -0.126548 0.000000
-0.031952 -0.507855 0.000000
0.095351 0.499846 0.000000
0.445917 -0.245145 0.000000
-0.508859 0.000000 0.000000
-0.492873 0.126548 0.000000
-0.445917 -0.245145 0.000000
0.095351 -0.499846 0.000000
-0.504847 0.063777 0.000000
0.216662 -0.460430 0.000000
0.492873 0.126548 0.000000
0.031952 -0.507855 0.000000
0.473126 -0.187324 0.000000
-0.473126 -0.187324 0.000000
0.504847 -0.063777 0.000000
-0.216662 -0.460430 0.000000
-0.095351 -0.499846 0.000000
-0.473126 0.187324 0.000000
-0.411676 -0.299100 0.000000
-0.157246 -0.483954 0.000000
0.504847 0.063777 0.000000
0.492873 -0.126548 0.000000
-0.370943 -0.348338 0.000000
-0.445917 0.245145 0.000000
-0.411676 0.299100 0.000000
-0.272661 -0.429644 0.000000
0.318712 0.385257 0.100000
-0.318712 0.385257 0.100000
[...]
POINT_DATA 5000
SCALARS pressure float 1
LOOKUP_TABLE default
101751.696519
101751.696519
101751.696519
101751.696519
101751.696519
101751.696519
101751.696519
101751.696519
101751.696519
101751.696519
101751.696519
101751.696519
101751.696519
101751.696519
101751.696519
101751.696519
101325.000000
101325.000000
101325.000000
101325.000000
101325.000000
101325.000000
101325.000000
101325.000000
101325.000000
101325.000000
101325.000000
101325.000000
101325.000000
101325.000000
101325.000000
101325.000000
101325.000000
101325.000000
101325.000000
101325.000000
101325.000000
101325.000000
101325.000000
101325.000000
101325.000000
101325.000000
101325.000000
101325.000000
101325.000000
101325.000000
101325.000000
101325.000000
101325.000000
101325.000000
101323.725683
101324.703077
101324.087957
101324.400485
101324.979903
101324.240455
101324.557992
101323.765560
101325.000000
101323.952572
101323.842807
101323.725683
101324.826627
101324.240455
101324.400485
101324.557992
101324.400485
101324.240455
101324.087957
101323.952572
101324.240455
101323.842807
101324.920876
101323.842807
101324.087957
101323.765560
101323.725683
101325.000000
101324.703077
101324.703077
101323.765560
101324.920876
101324.920876
101324.979903
101323.952572
101323.725683
101324.979903
101324.826627
101324.826627
101323.952572
101323.765560
101324.557992
101324.979903
101324.920876
101323.842807
101324.400485
101324.826627
101324.703077
101324.557992
101324.087957
101322.256965
101324.360858
101323.036778
101323.709513
101324.956741
101323.365040
101324.048553
101322.342801
101325.000000
101322.745355
101322.509080
101322.256965
101324.626804
101323.709513
101324.048553
101323.365039
101323.709513
101323.365039
101323.036778
101322.745355
101323.365039
101322.509080
101324.829681
101322.509080
101323.036778
101322.342801
101322.256965
101325.000000
101324.360858
101324.360858
101322.342801
101324.829681
101324.829681
101324.956741
101322.745355
101322.256965
101324.626804
101324.956741
101324.626804
101322.745355
101322.342801
101324.048553
101324.956741
101322.509080
101324.829681
101323.709513
101324.626804
101324.360858
101324.048553
101323.036778
101320.526793
101323.957719
101321.798474
101322.895537
101324.929455
101322.333787
101323.448428
101320.666770
101325.000000
101321.323235
101320.937931
101320.526793
101324.391411
101322.895537
101323.448428
101322.333787
101321.798474
101322.895537
101322.333787
101321.323235
101322.333787
101320.937931
101324.722252
101320.937931
101321.798474
101320.526793
101320.666770
101325.000000
101323.957719
101323.957719
101324.722252
101320.666770
101324.722252
101324.929455
101321.323235
101320.526793
101324.391411
101324.929455
101324.391411
101321.323235
101320.666770
101323.448428
101324.929455
101320.937931
101324.722252
101324.391411
101322.895537
101323.957719
101323.448428
101321.798474
101318.487428
101323.482537
101320.338878
101321.936098
101324.897293
101321.118243
101322.741056
101318.691223
101325.000000
101319.646974
101319.086007
101318.487428
101324.113951
101321.936098
101322.741056
101321.118243
101320.338878
101321.936098
101321.118243
101319.646974
101321.118243
101319.086007
101320.338878
101324.595625
101319.086007
101318.487428
101318.691223
101325.000000
101323.482537
101323.482537
101324.595625
101318.691223
101324.595625
101324.897293
101319.646974
101318.487428
101324.113951
101324.897293
101324.113951
101319.646974
101318.691223
101322.741056
101324.113951
101324.897293
101319.086007
101324.595625
101321.936098
101323.482537
101322.741056
101320.338878
101316.085866
101322.922960
101318.620052
101320.806260
101324.859419
101319.686814
101321.908052
101316.364811
101325.000000
101317.673003
101316.905175
101316.085865
101320.806260
101321.908052
101323.787213
101319.686814
101318.620052
101320.806260
101319.686814
101317.673003
101316.905175
101319.686814
101318.620052
101324.446508
101316.905175
101316.085865
101316.364811
101325.000000
101322.922960
101324.446508
101322.922960
101316.364811
101324.446508
101324.859419
101317.673003
101316.085865
101323.787213
101323.787213
101324.859419
101317.673003
101316.364811
101321.908052
101323.787213
101324.859419
101316.905174
101324.446508
101320.806260
101322.922960
101321.908052
101318.620052
101313.263567
101322.265349
101316.600101
101319.478482
101324.814909
101318.004609
101320.929112
101313.630829
101325.000000
101315.353208
101314.342277
101313.263567
101319.478482
101320.929112
101318.004609
101323.403234
101316.600101
101319.478482
101318.004609
101315.353208
101314.342277
101318.004609
101316.600101
101314.342277
101324.271268
101313.263567
101313.630829
101322.265349
101325.000000
101324.271268
101322.265349
101313.630829
101324.814909
101315.353208
101324.271268
101313.263567
101323.403234
101323.403234
101324.814909
101315.353208
101313.630829
101323.403234
101320.929112
101314.342277
101324.814909
101324.271268
101319.478482
101322.265349
101320.929112
101316.600101
101751.696519
101751.696519
101751.696519
101751.696519
101751.696519
101751.696519
101751.696519
101751.696519
101751.696519
101751.696519
101751.696519
101751.696519
101751.696519
101751.696519
101751.696519
101751.696519
101325.000000
101325.000000
101325.000000
101325.000000
101325.000000
101325.000000
101325.000000
101325.000000
101325.000000
101325.000000
101325.000000
101325.000000
101325.000000
101325.000000
101325.000000
101325.000000
101325.000000
101325.000000
101325.000000
101325.000000
101325.000000
101325.000000
101325.000000
101325.000000
101325.000000
101325.000000
101325.000000
101325.000000
101325.000000
101325.000000
101325.000000
101325.000000
101325.000000
101325.000000
101323.725683
101324.703077
101323.765560
101324.557992
101324.557992
101323.842807
101324.400485
101323.842807
101324.087957
101323.952572
101324.087957
101324.240455
101324.703077
101323.725683
101324.979903
101323.842807
101324.400485
101324.826627
101324.920876
101323.952572
101324.240455
101323.765560
101324.240455
101324.087957
101324.920876
101324.703077
101325.000000
101323.952572
101324.920876
101323.765560
101323.952572
101324.826627
101324.826627
101325.000000
101324.979903
101324.400485
101323.725683
101323.725683
101324.240455
101324.979903
101324.703077
101324.826627
101324.557992
101324.979903
101323.842807
101323.765560
101324.087957
101324.920876
101324.400485
101324.557992
101309.955847
101321.494633
101317.922334
101314.232727
101324.762745
101316.033073
101319.781799
101310.426616
101325.000000
101312.634418
101311.338573
101309.955847
101317.922334
101319.781799
101316.033073
101322.953211
101314.232727
101312.634418
101317.922334
101316.033073
101311.338573
101316.033073
101314.232727
101311.338573
101324.065886
101309.955847
101310.426616
101321.494633
101325.000000
101324.065886
101321.494633
101310.426616
101312.634418
101324.762745
101324.065886
101309.955847
101322.953211
101322.953211
101324.762745
101312.634418
101322.953211
101310.426616
101319.781799
101311.338573
101324.762745
101324.065886
101317.922334
101321.494633
101319.781799
101314.232727
101322.256965
101324.360858
101322.342801
101324.048553
101324.048553
101323.709513
101322.509080
101322.509080
101323.036778
101322.745355
101323.036778
101323.365039
101324.360858
101322.256965
101324.956741
101322.509080
101323.709513
101324.626804
101324.829681
101322.745355
101323.365039
101322.342801
101323.365039
101323.036778
101324.829681
101324.360858
101322.745355
101325.000000
101324.829681
101322.342801
101322.745355
101324.626804
101324.626804
101324.956741
101325.000000
101323.709513
101322.256965
101322.256965
101323.365039
101324.956741
101324.360858
101324.626804
101324.048553
101324.956741
101322.509080
101322.342801
101323.036778
101324.829681
101323.709513
101324.048553
101320.526793
101323.957719
101320.666770
101323.448428
101323.448428
101322.895537
101320.937931
101320.937931
101321.798474
101321.323235
101321.798474
101322.333787
101323.957719
101324.929455
101320.526793
101320.937931
101322.895537
101324.722252
101324.391411
101321.323235
101322.333787
101320.666770
101322.333787
101321.798474
101324.722252
101323.957719
101321.323235
101325.000000
101324.722252
101320.666770
101321.323235
101324.391411
101324.391411
101324.929455
101325.000000
101322.895537
101320.526793
101320.526793
101322.333787
101324.929455
101323.957719
101324.391411
101323.448428
101324.929455
101320.937931
101320.666770
101321.798474
101324.722252
101322.895537
101323.448428
101306.088318
101320.593479
101316.102818
101311.464693
101324.701751
101313.727869
101318.440312
101306.680112
101325.000000
101309.455493
101307.826514
101306.088318
101318.440312
101316.102818
101313.727869
101322.427026
101311.464693
101309.455493
101316.102818
101313.727869
101307.826514
101311.464693
101313.727869
101307.826514
101323.825746
101306.088318
101320.593479
101306.680112
101325.000000
101323.825746
101320.593479
101306.680112
101309.455493
101324.701751
101323.825746
101306.088318
101322.427026
101322.427026
101324.701751
101309.455493
101322.427026
101306.680112
101318.440312
101307.826514
101324.701751
101320.593479
101323.825746
101316.102818
101311.464693
101318.440312
101318.487428
101323.482537
101318.691223
101322.741056
101322.741056
101321.936098
101319.086007
101319.086007
101320.338878
101320.338878
101319.646974
101321.118243
101323.482537
101324.897293
101318.487428
101319.086007
101321.936098
101324.595625
101324.113951
101319.646974
101321.118243
101318.691223
101321.118243
101320.338878
101324.595625
101323.482537
101319.646974
101325.000000
101324.595625
101318.691223
101319.646974
101324.113951
101324.113951
101324.897293
101325.000000
101321.936098
101318.487428
101318.487428
101321.118243
101324.897293
101323.482537
101324.113951
101322.741056
101324.897293
101319.086007
101318.691223
101320.338878
101324.595625
101321.936098
101322.741056
101316.085865
101322.922960
101321.908052
101316.364811
101321.908052
101320.806260
101316.905175
101316.905175
101318.620052
101318.620052
101317.673003
101319.686814
101322.922960
101324.859419
101316.905175
101316.085865
101320.806260
101324.446508
101317.673003
101323.787213
101319.686814
101316.364811
101318.620052
101319.686814
101324.446508
101322.922960
101317.673003
101325.000000
101316.364811
101324.446508
101317.673003
101323.787213
101323.787213
101324.859419
101325.000000
101320.806260
101316.085865
101316.085865
101319.686814
101324.859419
101322.922960
101323.787213
101321.908052
101316.905174
101316.364811
101324.859419
101318.620052
101324.446508
101320.806260
101321.908052
101301.574494
101319.541734
101313.979246
101308.234098
101324.630566
101311.037447
101316.874651
101302.307537
101325.000000
101305.745343
101303.727561
101301.574494
101316.874651
101313.979246
101311.037447
101308.234097
101321.812911
101305.745343
101313.979246
101311.037447
101303.727561
101308.234097
101311.037447
101303.727561
101323.545476
101301.574494
101319.541734
101302.307537
101325.000000
101323.545476
101302.307537
101319.541734
101305.745343
101324.630566
101323.545476
101301.574494
101321.812911
101321.812911
101321.812911
101305.745343
101324.630566
101302.307537
101303.727561
101316.874651
101324.630566
101319.541734
101323.545476
101313.979246
101308.234097
101316.874651
101313.263567
101322.265349
101320.929112
101313.630829
101320.929112
101319.478482
101314.342277
101314.342277
101316.600101
101316.600101
101315.353208
101318.004609
101322.265349
101324.814909
101314.342277
101313.263567
101319.478482
101324.271268
101315.353208
101323.403234
101318.004609
101316.600101
101313.630829
101318.004609
101324.271268
101322.265349
101315.353208
101325.000000
101313.630829
101324.271268
101315.353208
101323.403234
101323.403234
101324.814909
101325.000000
101319.478482
101313.263567
101313.263567
101318.004609
101323.403234
101322.265349
101324.814909
101320.929112
101314.342277
101313.630829
101316.600101
101324.814909
101324.271268
101319.478482
101320.929112
101309.955847
101321.494633
101319.781799
101319.781799
101317.922334
101310.426616
101311.338573
101311.338573
101314.232727
101314.232727
101312.634418
101316.033073
101321.494633
101324.762745
101311.338573
101309.955847
101317.922334
101324.065886
101312.634418
101322.953211
101316.033073
101314.232727
101310.426616
101324.065886
101321.494633
101316.033073
101312.634418
101310.426616
101325.000000
101312.634418
101324.065886
101322.953211
101322.953211
101324.762745
101325.000000
101309.955847
101317.922334
101309.955847
101316.033073
101322.953211
101321.494633
101324.762745
101319.781799
101311.338573
101310.426616
101314.232727
101324.762745
101324.065886
101317.922334
101319.781799
101296.338531
101318.321727
101311.515937
101304.486659
101324.547992
101307.916600
101315.058510
101297.235420
101325.000000
101301.441629
101298.972842
101296.338531
101315.058510
101311.515937
101307.916600
101304.486659
101301.441629
101321.100547
101298.972842
101311.515937
101307.916600
101304.486659
101298.972842
101307.916600
101323.220367
101318.321727
101296.338531
101297.235420
101325.000000
101323.220367
101297.235420
101318.321727
101301.441629
101324.547992
101323.220367
101296.338531
101321.100547
101321.100547
101321.100547
101301.441629
101324.547992
101297.235420
101298.972842
101315.058510
101318.321727
101324.547992
101323.220367
101311.515937
101304.486659
101315.058510
101306.088318
101320.593479
101318.440312
101318.440312
101316.102818
101307.826514
101306.680112
101307.826514
101311.464693
101311.464693
101313.727869
101309.455493
101320.593479
101307.826514
101324.701751
101306.088318
101316.102818
101323.825746
101309.455493
101322.427026
101313.727869
101311.464693
101306.680112
101320.593479
101323.825746
101313.727869
101309.455493
101306.680112
101309.455493
101325.000000
101323.825746
101322.427026
101322.427026
101324.701751
101325.000000
101306.088318
101306.088318
101316.102818
101322.427026
101313.727869
101320.593479
101324.701751
101318.440312
101307.826514
101306.680112
101311.464693
101323.825746
101324.701751
101316.102818
101318.440312
101290.294377
101316.913407
101308.672407
101300.160789
101324.452672
101304.314039
101312.962041
101291.380402
101325.000000
101293.484214
101296.473621
101290.294377
101312.962041
101308.672407
101304.314038
101300.160789
101296.473621
101320.278227
101293.484214
101300.160789
101308.672407
101304.314038
101293.484214
101322.845077
101316.913407
101304.314038
101290.294377
101291.380402
101322.845077
101325.000000
101291.380402
101316.913407
101296.473621
101324.452672
101290.294377
101322.845077
101320.278227
101320.278227
101320.278227
101296.473621
101291.380402
101324.452672
101293.484214
101312.962041
101316.913407
101324.452672
101322.845077
101308.672407
101300.160788
101312.962041
101301.574494
101319.541734
101316.874651
101316.874651
101313.979246
101303.727561
101302.307537
101303.727561
101308.234097
101308.234097
101311.037447
101305.745343
101319.541734
101303.727561
101324.630566
101313.979246
101323.545476
101301.574494
101305.745343
101321.812911
101311.037447
101308.234097
101319.541734
101302.307537
101323.545476
101305.745343
101311.037447
101305.745343
101302.307537
101325.000000
101323.545476
101321.812911
101321.812911
101324.630566
101325.000000
101301.574494
101301.574494
101313.979246
101321.812911
101311.037447
101319.541734
101324.630566
101303.727561
101316.874651
101302.307537
101308.234097
101323.545476
101324.630566
101313.979246
101316.874651
101296.338531
101318.321727
101315.058510
101298.972842
101311.515937
101315.058510
101297.235420
101298.972842
101304.486659
101304.486659
101307.916600
101318.321727
101301.441629
101298.972842
101324.547992
101311.515937
101323.220367
101296.338531
101301.441629
101307.916600
101304.486659
101321.100547
101318.321727
101297.235420
101323.220367
101301.441629
101301.441629
101307.916600
101297.235420
101325.000000
101323.220367
101321.100547
101321.100547
101324.547992
101296.338531
101296.338531
101325.000000
101321.100547
101311.515937
101307.916600
101318.321727
101324.547992
101298.972842
101304.486659
101297.235420
101315.058510
101323.220367
101324.547992
101311.515937
101315.058510
101283.350335
101315.295409
101305.405515
101295.190858
101300.175107
101324.343160
101310.553437
101284.653657
101325.000000
101287.178407
101290.765947
101310.553437
101283.350335
101305.405515
101300.175107
101290.765947
101295.190858
101319.333476
101287.178407
101295.190858
101287.178407
101305.405515
101315.295409
101300.175107
101322.413911
101283.350335
101300.175107
101284.653656
101322.413911
101325.000000
101284.653656
101315.295409
101290.765947
101324.343160
101283.350335
101322.413911
101319.333476
101319.333476
101319.333476
101290.765947
101284.653656
101287.178407
101324.343160
101315.295409
101310.553437
101324.343160
101322.413911
101295.190858
101305.405515
101310.553437
101290.294377
101316.913407
101312.962041
101293.484214
101308.672407
101312.962041
101291.380402
101293.484214
101300.160789
101300.160789
101304.314039
101316.913407
101293.484214
101296.473621
101324.452672
101322.845077
101308.672407
101296.473621
101290.294377
101300.160789
101304.314038
101316.913407
101320.278227
101296.473621
101322.845077
101296.473621
101291.380402
101304.314038
101291.380402
101320.278227
101320.278227
101325.000000
101322.845077
101324.452672
101290.294377
101290.294377
101320.278227
101325.000000
101308.672407
101316.913407
101304.314038
101324.452672
101293.484214
101300.160788
101291.380402
101312.962041
101322.845077
101324.452672
101308.672407
101312.962041
101275.396460
101313.442114
101301.663539
101289.498179
101295.434275
101324.217723
101307.794564
101276.948678
101325.000000
101307.794564
101301.663539
101279.955583
101284.228238
101275.396460
101284.228238
101295.434275
101289.498179
101279.955582
101289.498179
101318.251335
101313.442114
101279.955582
101321.920044
101301.663539
101295.434275
101275.396460
101295.434275
101321.920044
101276.948678
101325.000000
101276.948678
101313.442114
101284.228238
101324.217723
101318.251335
101275.396460
101318.251335
101321.920044
101284.228238
101318.251335
101276.948678
101279.955582
101324.217723
101313.442114
101307.794563
101324.217723
101289.498179
101321.920044
101301.663539
101307.794563
101283.350335
101315.295409
101310.553437
101287.178407
101305.405515
101310.553437
101284.653657
101295.190858
101287.178407
101300.175107
101295.190858
101315.295409
101287.178407
101322.413911
101324.343160
101305.405515
101290.765947
101290.765947
101283.350335
101295.190858
101300.175107
101290.765947
101315.295409
101290.765947
101322.413911
101319.333476
101284.653656
101284.653656
101300.175107
101319.333476
101319.333476
101322.413911
101325.000000
101324.343160
101319.333476
101283.350335
101283.350335
101325.000000
101315.295409
101305.405515
101300.175107
101287.178407
101324.343160
101295.190858
101284.653656
101310.553437
101322.413911
101324.343160
101305.405515
101310.553437
101266.389217
101311.343379
101297.425995
101283.051592
101290.065592
101324.075673
101304.670320
101268.223294
101325.000000
101304.670320
101297.425995
101276.824711
101290.065592
101283.051592
101271.776206
101266.389217
101276.824711
101271.776206
101283.051592
101311.343379
101271.776206
101317.025880
101321.360771
101266.389217
101297.425995
101290.065592
101290.065592
101321.360771
101268.223294
101325.000000
101268.223294
101311.343379
101276.824711
101317.025880
101324.075673
101266.389217
101276.824711
101317.025880
101321.360771
101317.025880
101271.776206
101268.223294
101311.343379
101324.075673
101304.670320
101283.051592
101324.075673
101321.360771
101297.425995
101304.670320
101275.396460
101307.794564
101313.442114
101279.955583
101301.663539
101307.794564
101276.948678
101289.498179
101295.434275
101279.955583
101313.442114
101289.498179
101279.955582
101321.920044
101301.663539
101324.217723
101284.228238
101284.228238
101275.396460
101284.228238
101289.498179
101295.434275
101313.442114
101284.228238