# vtk DataFile Version 3.0
Time Step 196, Physical Time = 0.001960s, Residual = 1.41e-03
ASCII
DATASET UNSTRUCTURED_GRID
POINTS 5000 float
0.318712 0.385257 0.000000
-0.318712 0.385257 0.000000
-0.318712 -0.385257 0.000000
0.318712 -0.385257 0.000000
0.093691 0.491144 0.000000
-0.093691 0.491144 0.000000
-0.093691 -0.491144 0.000000
0.093691 -0.491144 0.000000
0.404508 0.293893 0.000000
-0.404508 0.293893 0.000000
-0.404508 -0.293893 0.000000
0.404508 -0.293893 0.000000
0.438153 0.240877 0.000000
-0.438153 0.240877 0.000000
-0.438153 -0.240877 0.000000
0.438153 -0.240877 0.000000
0.500000 0.000000 0.000000
-0.500000 -0.000000 0.000000
0.364484 0.342274 0.000000
-0.364484 0.342274 0.000000
-0.364484 -0.342274 0.000000
0.364484 -0.342274 0.000000
0.496057 0.062667 0.000000
-0.496057 0.062667 0.000000
-0.496057 -0.062667 0.000000
0.496057 -0.062667 0.000000
0.212890 0.452414 0.000000
-0.212890 0.452414 0.000000
-0.212890 -0.452414 0.000000
0.212890 -0.452414 0.000000
0.154508 0.475528 0.000000
-0.154508 0.475528 0.000000
-0.154508 -0.475528 0.000000
0.154508 -0.475528 0.000000
0.267913 0.422164 0.000000
-0.267913 0.422164 0.000000
-0.267913 -0.422164 0.000000
0.267913 -0.422164 0.000000
0.031395 0.499013 0.000000
-0.031395 0.499013 0.000000
-0.031395 -0.499013 0.000000
0.031395 -0.499013 0.000000
0.464888 0.184062 0.000000
-0.464888 0.184062 0.000000
-0.464888 -0.184062 0.000000
0.464888 -0.184062 0.000000
0.484292 0.124345 0.000000
-0.484292 0.124345 0.000000
-0.484292 -0.124345 0.000000
0.484292 -0.124345 0.000000
-0.031454 0.499951 0.000000
0.438977 0.241329 0.000000
-0.268417 0.422957 0.000000
0.365169 0.342917 0.000000
-0.496990 -0.062784 0.000000
0.319311 -0.385981 0.000000
0.405269 0.294445 0.000000
-0.093867 0.492067 0.000000
0.500940 -0.000000 0.000000
-0.213290 0.453264 0.000000
-0.154799 0.476422 0.000000
0.031454 0.499951 0.000000
0.465762 0.184408 0.000000
0.319311 0.385981 0.000000
0.365169 -0.342917 0.000000
0.405269 -0.294445 0.000000
-0.365169 0.342917 0.000000
-0.319311 0.385981 0.000000
0.268417 0.422957 0.000000
0.213290 0.453264 0.000000
-0.319311 -0.385981 0.000000
0.154799 -0.476422 0.000000
-0.485202 -0.124579 0.000000
0.154799 0.476422 0.000000
0.268417 -0.422957 0.000000
0.093867 0.492067 0.000000
-0.031454 -0.499951 0.000000
-0.500940 0.000000 0.000000
0.438977 -0.241329 0.000000
-0.438977 -0.241329 0.000000
0.093867 -0.492067 0.000000
-0.485202 0.124579 0.000000
0.485202 0.124579 0.000000
-0.496990 0.062784 0.000000
0.213290 -0.453264 0.000000
0.031454 -0.499951 0.000000
0.496990 -0.062784 0.000000
0.465762 -0.184408 0.000000
-0.465762 -0.184408 0.000000
-0.213290 -0.453264 0.000000
-0.093867 -0.492067 0.000000
-0.405269 -0.294445 0.000000
0.496990 0.062784 0.000000
0.485202 -0.124579 0.000000
-0.154799 -0.476422 0.000000
-0.365169 -0.342917 0.000000
-0.465762 0.184408 0.000000
-0.438977 0.241329 0.000000
-0.405269 0.294445 0.000000
-0.268417 -0.422957 0.000000
-0.031523 0.501039 0.000000
0.439932 0.241854 0.000000
-0.269001 0.423877 0.000000
0.365964 0.343663 0.000000
-0.498071 -0.062921 0.000000
0.320005 -0.386820 0.000000
0.406150 0.295085 0.000000
-0.094071 0.493137 0.000000
0.502029 -0.000000 0.000000
-0.213754 0.454250 0.000000
-0.155136 0.477458 0.000000
0.031523 0.501039 0.000000
0.466775 0.184809 0.000000
0.365964 -0.343663 0.000000
0.406150 -0.295085 0.000000
0.320005 0.386820 0.000000
-0.365964 0.343663 0.000000
-0.320005 0.386820 0.000000
0.269001 0.423877 0.000000
0.213754 0.454250 0.000000
-0.320005 -0.386820 0.000000
0.155136 -0.477458 0.000000
-0.486257 -0.124850 0.000000
0.155136 0.477458 0.000000
0.269001 -0.423877 0.000000
0.094071 0.493137 0.000000
-0.031523 -0.501039 0.000000
-0.502029 0.000000 0.000000
0.439932 -0.241854 0.000000
-0.439932 -0.241854 0.000000
0.094071 -0.493137 0.000000
-0.486257 0.124850 0.000000
0.486257 0.124850 0.000000
-0.498071 0.062921 0.000000
0.213754 -0.454250 0.000000
0.031523 -0.501039 0.000000
0.466775 -0.184809 0.000000
0.498071 -0.062921 0.000000
-0.466775 -0.184809 0.000000
-0.213754 -0.454250 0.000000
-0.094071 -0.493137 0.000000
-0.406150 -0.295085 0.000000
0.498071 0.062921 0.000000
-0.155136 -0.477458 0.000000
0.486257 -0.124850 0.000000
-0.365964 -0.343663 0.000000
-0.466775 0.184809 0.000000
-0.439932 0.241854 0.000000
-0.406150 0.295085 0.000000
-0.269001 -0.423877 0.000000
-0.031604 0.502329 0.000000
0.441064 0.242477 0.000000
-0.269693 0.424969 0.000000
0.366906 0.344547 0.000000
-0.499353 -0.063083 0.000000
0.320829 -0.387816 0.000000
0.407196 0.295845 0.000000
-0.094313 0.494407 0.000000
0.503322 -0.000000 0.000000
-0.214304 0.455419 0.000000
-0.155535 0.478688 0.000000
0.031604 0.502329 0.000000
0.467977 0.185285 0.000000
0.366906 -0.344547 0.000000
0.407196 -0.295845 0.000000
0.320829 0.387816 0.000000
0.269693 0.424969 0.000000
-0.366906 0.344547 0.000000
-0.320829 0.387816 0.000000
0.214304 0.455419 0.000000
-0.320829 -0.387816 0.000000
0.155535 -0.478688 0.000000
-0.487509 -0.125171 0.000000
0.155535 0.478688 0.000000
0.269693 -0.424969 0.000000
-0.031604 -0.502329 0.000000
0.094313 0.494407 0.000000
-0.503322 0.000000 0.000000
0.441064 -0.242477 0.000000
-0.441064 -0.242477 0.000000
-0.487509 0.125171 0.000000
0.094313 -0.494407 0.000000
0.487509 0.125171 0.000000
-0.499353 0.063083 0.000000
0.214304 -0.455419 0.000000
0.031604 -0.502329 0.000000
0.467977 -0.185285 0.000000
0.499353 -0.063083 0.000000
-0.467977 -0.185285 0.000000
-0.214304 -0.455419 0.000000
-0.094313 -0.494407 0.000000
-0.407196 -0.295845 0.000000
0.499353 0.063083 0.000000
-0.155535 -0.478688 0.000000
0.487509 -0.125171 0.000000
-0.467977 0.185285 0.000000
-0.366906 -0.344547 0.000000
-0.441064 0.242477 0.000000
-0.407196 0.295845 0.000000
-0.269693 -0.424969 0.000000
-0.031700 0.503862 0.000000
0.442411 0.243217 0.000000
-0.270517 0.426266 0.000000
0.368026 0.345599 0.000000
-0.500877 -0.063276 0.000000
0.321809 -0.389000 0.000000
0.408439 0.296748 0.000000
-0.094601 0.495916 0.000000
0.504858 -0.000000 0.000000
-0.214958 0.456810 0.000000
-0.156010 0.480149 0.000000
0.031700 0.503862 0.000000
0.469405 0.185851 0.000000
0.368026 -0.345599 0.000000
0.408439 -0.296748 0.000000
0.321809 0.389000 0.000000
0.270517 0.426266 0.000000
-0.368026 0.345599 0.000000
-0.321809 0.389000 0.000000
0.214958 0.456810 0.000000
-0.321809 -0.389000 0.000000
0.156010 -0.480149 0.000000
0.270517 -0.426266 0.000000
-0.488997 -0.125553 0.000000
0.156010 0.480149 0.000000
-0.031700 -0.503862 0.000000
0.094601 0.495916 0.000000
-0.504858 0.000000 0.000000
0.442411 -0.243217 0.000000
-0.442411 -0.243217 0.000000
-0.488997 0.125553 0.000000
0.094601 -0.495916 0.000000
0.488997 0.125553 0.000000
-0.500877 0.063276 0.000000
0.214958 -0.456810 0.000000
0.031700 -0.503862 0.000000
0.469405 -0.185851 0.000000
0.500877 -0.063276 0.000000
-0.469405 -0.185851 0.000000
-0.214958 -0.456810 0.000000
-0.094601 -0.495916 0.000000
-0.408439 -0.296748 0.000000
-0.469405 0.185851 0.000000
0.500877 0.063276 0.000000
-0.156010 -0.480149 0.000000
0.488997 -0.125553 0.000000
-0.368026 -0.345599 0.000000
-0.442411 0.243217 0.000000
-0.408439 0.296748 0.000000
-0.270517 -0.426266 0.000000
-0.031815 0.505686 0.000000
0.444012 0.244098 0.000000
-0.271496 0.427809 0.000000
0.369358 0.346850 0.000000
-0.502691 -0.063505 0.000000
0.322974 -0.390408 0.000000
0.409918 0.297823 0.000000
-0.094943 0.497711 0.000000
0.506686 -0.000000 0.000000
-0.215736 0.458463 0.000000
-0.156575 0.481887 0.000000
0.031815 0.505686 0.000000
0.369358 -0.346850 0.000000
0.409918 -0.297823 0.000000
0.471105 0.186524 0.000000
0.322974 0.390408 0.000000
0.271496 0.427809 0.000000
-0.369358 0.346850 0.000000
-0.322974 0.390408 0.000000
0.215736 0.458463 0.000000
0.156575 -0.481887 0.000000
-0.322974 -0.390408 0.000000
0.271496 -0.427809 0.000000
-0.490768 -0.126008 0.000000
0.156575 0.481887 0.000000
-0.031815 -0.505686 0.000000
0.094943 0.497711 0.000000
-0.506686 0.000000 0.000000
0.444012 -0.244098 0.000000
-0.490768 0.126008 0.000000
-0.444012 -0.244098 0.000000
0.094943 -0.497711 0.000000
0.490768 0.126008 0.000000
-0.502691 0.063505 0.000000
0.215736 -0.458463 0.000000
0.031815 -0.505686 0.000000
0.471105 -0.186524 0.000000
-0.471105 -0.186524 0.000000
0.502691 -0.063505 0.000000
-0.215736 -0.458463 0.000000
-0.094943 -0.497711 0.000000
-0.409918 -0.297823 0.000000
-0.471105 0.186524 0.000000
0.502691 0.063505 0.000000
-0.156575 -0.481887 0.000000
0.490768 -0.126008 0.000000
-0.369358 -0.346850 0.000000
-0.444012 0.244098 0.000000
-0.409918 0.297823 0.000000
-0.271496 -0.427809 0.000000
-0.031952 0.507855 0.000000
0.445917 0.245145 0.000000
-0.272661 0.429644 0.000000
0.370943 0.348338 0.000000
-0.504847 -0.063777 0.000000
0.324359 -0.392083 0.000000
0.411676 0.299100 0.000000
-0.095351 0.499846 0.000000
0.508859 -0.000000 0.000000
-0.216662 0.460430 0.000000
-0.157246 0.483954 0.000000
0.031952 0.507855 0.000000
0.370943 -0.348338 0.000000
0.411676 -0.299100 0.000000
0.324359 0.392083 0.000000
0.473126 0.187324 0.000000
0.272661 0.429644 0.000000
-0.370943 0.348338 0.000000
-0.324359 0.392083 0.000000
0.216662 0.460430 0.000000
0.157246 -0.483954 0.000000
-0.324359 -0.392083 0.000000
0.272661 -0.429644 0.000000
0.157246 0.483954 0.000000
-0.492873 -0.126548 0.000000
-0.031952 -0.507855 0.000000
0.095351 0.499846 0.000000
0.445917 -0.245145 0.000000
-0.508859 0.000000 0.000000
-0.492873 0.126548 0.000000
-0.445917 -0.245145 0.000000
0.095351 -0.499846 0.000000
-0.504847 0.063777 0.000000
0.216662 -0.460430 0.000000
0.492873 0.126548 0.000000
0.031952 -0.507855 0.000000
0.473126 -0.187324 0.000000
-0.473126 -0.187324 0.000000
0.504847 -0.063777 0.000000
-0.216662 -0.460430 0.000000
-0.095351 -0.499846 0.000000
-0.473126 0.187324 0.000000
-0.411676 -0.299100 0.000000
-0.157246 -0.483954 0.000000
0.504847 0.063777 0.000000
0.492873 -0.126548 0.000000
-0.370943 -0.348338 0.000000
-0.445917 0.245145 0.000000
-0.411676 0.299100 0.000000
-0.272661 -0.429644 0.000000
0.318712 0.385257 0.100000
-0.318712 0.385257 0.100000
[...]
POINT_DATA 5000
SCALARS pressure float 1
LOOKUP_TABLE default
101815.079453
101815.079453
101815.079453
101815.079453
101815.079453
101815.079453
101815.079453
101815.079453
101815.079453
101815.079453
101815.079453
101815.079453
101815.079453
101815.079453
101815.079453
101815.079453
101325.000000
101325.000000
101325.000000
101325.000000
101325.000000
101325.000000
101325.000000
101325.000000
101325.000000
101325.000000
101325.000000
101325.000000
101325.000000
101325.000000
101325.000000
101325.000000
101325.000000
101325.000000
101325.000000
101325.000000
101325.000000
101325.000000
101325.000000
101325.000000
101325.000000
101325.000000
101325.000000
101325.000000
101325.000000
101325.000000
101325.000000
101325.000000
101325.000000
101325.000000
101323.536392
101324.658972
101323.952479
101324.311431
101324.976918
101324.127630
101324.492334
101323.582192
101325.000000
101323.796983
101323.670914
101323.536392
101324.800873
101324.127630
101324.311431
101324.492334
101324.311431
101324.127630
101323.952479
101323.796983
101324.127630
101323.670914
101324.909122
101323.670914
101323.952479
101323.582192
101323.536392
101325.000000
101324.658972
101324.658972
101323.582192
101324.909122
101324.909122
101324.976918
101323.796983
101323.536392
101324.976918
101324.800873
101324.800873
101323.796983
101323.582192
101324.492334
101324.976918
101324.909122
101323.670914
101324.311431
101324.800873
101324.658972
101324.492334
101323.952479
101321.849505
101324.265918
101322.745155
101323.517819
101324.950315
101323.122177
101323.907222
101321.948092
101325.000000
101322.410442
101322.139071
101321.849505
101324.571369
101323.517819
101323.907222
101323.122177
101323.517819
101323.122177
101322.745155
101322.410442
101323.122177
101322.139071
101324.804381
101322.139071
101322.745155
101321.948092
101321.849505
101325.000000
101324.265918
101324.265918
101321.948092
101324.804381
101324.804381
101324.950315
101322.410442
101321.849505
101324.571369
101324.950315
101324.571369
101322.410442
101321.948092
101323.907222
101324.950315
101322.139071
101324.804381
101323.517819
101324.571369
101324.265918
101323.907222
101322.745155
101319.862327
101323.802895
101321.322909
101322.582933
101324.918976
101321.937738
101323.217952
101320.023098
101325.000000
101320.777076
101320.334537
101319.862327
101324.301009
101322.582933
101323.217952
101321.937738
101321.322909
101322.582933
101321.937738
101320.777076
101321.937738
101320.334537
101324.680994
101320.334537
101321.322909
101319.862327
101320.023098
101325.000000
101323.802895
101323.802895
101324.680994
101320.023098
101324.680994
101324.918976
101320.777076
101319.862327
101324.301009
101324.918976
101324.301009
101320.777076
101320.023098
101323.217952
101324.918976
101320.334537
101324.680994
101324.301009
101322.582933
101323.802895
101323.217952
101321.322909
101317.520029
101323.257127
101319.646499
101321.480976
101324.882036
101320.541633
101322.405504
101317.754096
101325.000000
101318.851818
101318.207522
101317.520029
101323.982334
101321.480976
101322.405504
101320.541633
101319.646499
101321.480976
101320.541633
101318.851818
101320.541633
101318.207522
101319.646499
101324.535558
101318.207522
101317.520029
101317.754096
101325.000000
101323.257127
101323.257127
101324.535558
101317.754096
101324.535558
101324.882036
101318.851818
101317.520029
101323.982334
101324.882036
101323.982334
101318.851818
101317.754096
101322.405504
101323.982334
101324.882036
101318.207522
101324.535558
101321.480976
101323.257127
101322.405504
101319.646499
101314.761730
101322.614429
101317.672353
101320.183308
101324.838536
101318.897575
101321.448763
101315.082111
101325.000000
101316.584627
101315.702742
101314.761730
101320.183308
101321.448763
101323.607062
101318.897575
101317.672353
101320.183308
101318.897575
101316.584627
101315.702742
101318.897575
101317.672353
101324.364291
101315.702742
101314.761730
101315.082111
101325.000000
101322.614429
101324.364291
101322.614429
101315.082111
101324.364291
101324.838536
101316.584627
101314.761730
101323.607062
101323.607062
101324.838536
101316.584627
101315.082111
101321.448763
101323.607062
101324.838536
101315.702742
101324.364291
101320.183308
101322.614429
101321.448763
101317.672353
101311.520198
101321.859135
101315.352351
101318.658298
101324.787415
101316.965490
101320.324409
101311.942014
101325.000000
101313.920241
101312.759143
101311.520198
101318.658298
101320.324409
101316.965490
101323.166045
101315.352351
101318.658298
101316.965490
101313.920241
101312.759143
101316.965490
101315.352351
101312.759143
101324.163019
101311.520198
101311.942014
101321.859135
101325.000000
101324.163019
101321.859135
101311.942014
101324.787415
101313.920241
101324.163019
101311.520198
101323.166045
101323.166045
101324.787415
101313.920241
101311.942014
101323.166045
101320.324409
101312.759143
101324.787415
101324.163019
101318.658298
101321.859135
101320.324409
101315.352351
101815.079453
101815.079453
101815.079453
101815.079453
101815.079453
101815.079453
101815.079453
101815.079453
101815.079453
101815.079453
101815.079453
101815.079453
101815.079453
101815.079453
101815.079453
101815.079453
101325.000000
101325.000000
101325.000000
101325.000000
101325.000000
101325.000000
101325.000000
101325.000000
101325.000000
101325.000000
101325.000000
101325.000000
101325.000000
101325.000000
101325.000000
101325.000000
101325.000000
101325.000000
101325.000000
101325.000000
101325.000000
101325.000000
101325.000000
101325.000000
101325.000000
101325.000000
101325.000000
101325.000000
101325.000000
101325.000000
101325.000000
101325.000000
101325.000000
101325.000000
101323.536392
101324.658972
101323.582192
101324.492334
101324.492334
101323.670914
101324.311431
101323.670914
101323.952479
101323.796983
101323.952479
101324.127630
101324.658972
101323.536392
101324.976918
101323.670914
101324.311431
101324.800873
101324.909122
101323.796983
101324.127630
101323.582192
101324.127630
101323.952479
101324.909122
101324.658972
101325.000000
101323.796983
101324.909122
101323.582192
101323.796983
101324.800873
101324.800873
101325.000000
101324.976918
101324.311431
101323.536392
101323.536392
101324.127630
101324.976918
101324.658972
101324.800873
101324.492334
101324.976918
101323.670914
101323.582192
101323.952479
101324.909122
101324.311431
101324.492334
101307.721138
101320.973934
101316.870993
101312.633321
101324.727502
101314.701096
101319.006670
101308.261836
101325.000000
101310.797593
101309.309259
101307.721138
101316.870993
101319.006670
101314.701096
101322.649175
101312.633321
101310.797593
101316.870993
101314.701096
101309.309259
101314.701096
101312.633321
101309.309259
101323.927130
101307.721138
101308.261836
101320.973934
101325.000000
101323.927130
101320.973934
101308.261836
101310.797593
101324.727502
101323.927130
101307.721138
101322.649175
101322.649175
101324.727502
101310.797593
101322.649175
101308.261836
101319.006670
101309.309259
101324.727502
101323.927130
101316.870993
101320.973934
101319.006670
101312.633321
101321.849505
101324.265918
101321.948092
101323.907222
101323.907222
101323.517819
101322.139071
101322.139071
101322.745155
101322.410442
101322.745155
101323.122177
101324.265918
101321.849505
101324.950315
101322.139071
101323.517819
101324.571369
101324.804381
101322.410442
101323.122177
101321.948092
101323.122177
101322.745155
101324.804381
101324.265918
101322.410442
101325.000000
101324.804381
101321.948092
101322.410442
101324.571369
101324.571369
101324.950315
101325.000000
101323.517819
101321.849505
101321.849505
101323.122177
101324.950315
101324.265918
101324.571369
101323.907222
101324.950315
101322.139071
101321.948092
101322.745155
101324.804381
101323.517819
101323.907222
101319.862327
101323.802895
101320.023098
101323.217952
101323.217952
101322.582933
101320.334537
101320.334537
101321.322909
101320.777076
101321.322909
101321.937738
101323.802895
101324.918976
101319.862327
101320.334537
101322.582933
101324.680994
101324.301009
101320.777076
101321.937738
101320.023098
101321.937738
101321.322909
101324.680994
101323.802895
101320.777076
101325.000000
101324.680994
101320.023098
101320.777076
101324.301009
101324.301009
101324.918976
101325.000000
101322.582933
101319.862327
101319.862327
101321.937738
101324.918976
101323.802895
101324.301009
101323.217952
101324.918976
101320.334537
101320.023098
101321.322909
101324.680994
101322.582933
101323.217952
101303.279113
101319.938919
101314.781200
101309.454113
101324.657449
101312.053469
101317.465914
101303.958814
101325.000000
101307.146459
101305.275507
101303.279113
101317.465914
101314.781200
101312.053469
101322.044828
101309.454113
101307.146459
101314.781200
101312.053469
101305.275507
101309.454113
101312.053469
101305.275507
101323.651318
101303.279113
101319.938919
101303.958814
101325.000000
101323.651318
101319.938919
101303.958814
101307.146459
101324.657449
101323.651318
101303.279113
101322.044828
101322.044828
101324.657449
101307.146459
101322.044828
101303.958814
101317.465914
101305.275507
101324.657449
101319.938919
101323.651318
101314.781200
101309.454113
101317.465914
101317.520029
101323.257127
101317.754096
101322.405504
101322.405504
101321.480976
101318.207522
101318.207522
101319.646499
101319.646499
101318.851818
101320.541633
101323.257127
101324.882036
101317.520029
101318.207522
101321.480976
101324.535558
101323.982334
101318.851818
101320.541633
101317.754096
101320.541633
101319.646499
101324.535558
101323.257127
101318.851818
101325.000000
101324.535558
101317.754096
101318.851818
101323.982334
101323.982334
101324.882036
101325.000000
101321.480976
101317.520029
101317.520029
101320.541633
101324.882036
101323.257127
101323.982334
101322.405504
101324.882036
101318.207522
101317.754096
101319.646499
101324.535558
101321.480976
101322.405504
101314.761730
101322.614429
101321.448763
101315.082111
101321.448763
101320.183308
101315.702742
101315.702742
101317.672353
101317.672353
101316.584627
101318.897575
101322.614429
101324.838536
101315.702742
101314.761730
101320.183308
101324.364291
101316.584627
101323.607062
101318.897575
101315.082111
101317.672353
101318.897575
101324.364291
101322.614429
101316.584627
101325.000000
101315.082111
101324.364291
101316.584627
101323.607062
101323.607062
101324.838536
101325.000000
101320.183308
101314.761730
101314.761730
101318.897575
101324.838536
101322.614429
101323.607062
101321.448763
101315.702742
101315.082111
101324.838536
101317.672353
101324.364291
101320.183308
101321.448763
101298.094791
101318.730945
101312.342186
101305.743634
101324.575689
101308.963402
101315.667685
101298.936722
101325.000000
101302.885192
101300.567682
101298.094791
101315.667685
101312.342186
101308.963402
101305.743634
101321.339490
101302.885192
101312.342186
101308.963402
101300.567682
101305.743634
101308.963402
101300.567682
101323.329416
101298.094791
101318.730945
101298.936722
101325.000000
101323.329416
101298.936722
101318.730945
101302.885192
101324.575689
101323.329416
101298.094791
101321.339490
101321.339490
101321.339490
101302.885192
101324.575689
101298.936722
101300.567682
101315.667685
101324.575689
101318.730945
101323.329416
101312.342186
101305.743634
101315.667685
101311.520198
101321.859135
101320.324409
101311.942014
101320.324409
101318.658298
101312.759143
101312.759143
101315.352351
101315.352351
101313.920241
101316.965490
101321.859135
101324.787415
101312.759143
101311.520198
101318.658298
101324.163019
101313.920241
101323.166045
101316.965490
101315.352351
101311.942014
101316.965490
101324.163019
101321.859135
101313.920241
101325.000000
101311.942014
101324.163019
101313.920241
101323.166045
101323.166045
101324.787415
101325.000000
101318.658298
101311.520198
101311.520198
101316.965490
101323.166045
101321.859135
101324.787415
101320.324409
101312.759143
101311.942014
101315.352351
101324.787415
101324.163019
101318.658298
101320.324409
101307.721138
101320.973934
101319.006670
101319.006670
101316.870993
101308.261836
101309.309259
101309.309259
101312.633321
101312.633321
101310.797593
101314.701096
101320.973934
101324.727502
101309.309259
101307.721138
101316.870993
101323.927130
101310.797593
101322.649175
101314.701096
101312.633321
101308.261836
101323.927130
101320.973934
101314.701096
101310.797593
101308.261836
101325.000000
101310.797593
101323.927130
101322.649175
101322.649175
101324.727502
101325.000000
101307.721138
101316.870993
101307.721138
101314.701096
101322.649175
101320.973934
101324.727502
101319.006670
101309.309259
101308.261836
101312.633321
101324.727502
101323.927130
101316.870993
101319.006670
101292.081060
101317.329714
101309.512969
101301.439538
101324.480849
101305.378974
101313.581768
101293.111176
101325.000000
101297.942190
101295.106680
101292.081060
101313.581768
101309.512969
101305.378974
101301.439538
101297.942190
101320.521309
101295.106680
101309.512969
101305.378974
101301.439538
101295.106680
101305.378974
101322.956015
101317.329714
101292.081060
101293.111176
101325.000000
101322.956015
101293.111176
101317.329714
101297.942190
101324.480849
101322.956015
101292.081060
101320.521309
101320.521309
101320.521309
101297.942190
101324.480849
101293.111176
101295.106680
101313.581768
101317.329714
101324.480849
101322.956015
101309.512969
101301.439538
101313.581768
101303.279113
101319.938919
101317.465914
101317.465914
101314.781200
101305.275507
101303.958814
101305.275507
101309.454113
101309.454113
101312.053469
101307.146459
101319.938919
101305.275507
101324.657449
101303.279113
101314.781200
101323.651318
101307.146459
101322.044828
101312.053469
101309.454113
101303.958814
101319.938919
101323.651318
101312.053469
101307.146459
101303.958814
101307.146459
101325.000000
101323.651318
101322.044828
101322.044828
101324.657449
101325.000000
101303.279113
101303.279113
101314.781200
101322.044828
101312.053469
101319.938919
101324.657449
101317.465914
101305.275507
101303.958814
101309.454113
101323.651318
101324.657449
101314.781200
101317.465914
101285.139088
101315.712198
101306.247051
101296.471089
101324.371370
101301.241276
101311.173882
101286.386434
101325.000000
101288.802753
101292.236217
101285.139087
101311.173882
101306.247051
101301.241276
101296.471089
101292.236217
101319.576839
101288.802753
101296.471089
101306.247051
101301.241276
101288.802753
101322.524978
101315.712198
101301.241276
101285.139087
101286.386434
101322.524978
101325.000000
101286.386434
101315.712198
101292.236217
101324.371370
101285.139087
101322.524978
101319.576839
101319.576839
101319.576839
101292.236217
101286.386434
101324.371370
101288.802753
101311.173882
101315.712198
101324.371370
101322.524978
101306.247051
101296.471089
101311.173882
101298.094791
101318.730945
101315.667685
101315.667685
101312.342186
101300.567682
101298.936722
101300.567682
101305.743634
101305.743634
101308.963402
101302.885192
101318.730945
101300.567682
101324.575689
101312.342186
101323.329416
101298.094791
101302.885192
101321.339490
101308.963402
101305.743634
101318.730945
101298.936722
101323.329416
101302.885192
101308.963402
101302.885192
101298.936722
101325.000000
101323.329416
101321.339490
101321.339490
101324.575689
101325.000000
101298.094791
101298.094791
101312.342186
101321.339490
101308.963402
101318.730945
101324.575689
101300.567682
101315.667685
101298.936722
101305.743634
101323.329416
101324.575689
101312.342186
101315.667685
101292.081060
101317.329714
101313.581768
101295.106681
101309.512969
101313.581768
101293.111176
101295.106681
101301.439538
101301.439538
101305.378974
101317.329714
101297.942190
101295.106680
101324.480849
101309.512969
101322.956015
101292.081060
101297.942190
101305.378974
101301.439538
101320.521309
101317.329714
101293.111176
101322.956015
101297.942190
101297.942190
101305.378974
101293.111176
101325.000000
101322.956015
101320.521309
101320.521309
101324.480849
101292.081060
101292.081060
101325.000000
101320.521309
101309.512969
101305.378974
101317.329714
101324.480849
101295.106680
101301.439538
101293.111176
101313.581768
101322.956015
101324.480849
101309.512969
101313.581768
101277.163554
101313.853856
101302.494885
101290.762908
101296.487534
101324.245591
101308.407496
101278.660475
101325.000000
101281.560260
101285.680706
101308.407496
101277.163554
101302.494885
101296.487534
101285.680706
101290.762908
101318.491751
101281.560260
101290.762908
101281.560260
101302.494885
101313.853856
101296.487534
101322.029765
101277.163554
101296.487534
101278.660475
101322.029765
101325.000000
101278.660475
101313.853856
101285.680706
101324.245591
101277.163554
101322.029765
101318.491751
101318.491751
101318.491751
101285.680706
101278.660475
101281.560260
101324.245591
101313.853856
101308.407496
101324.245591
101322.029765
101290.762908
101302.494885
101308.407496
101285.139088
101315.712198
101311.173882
101288.802753
101306.247051
101311.173882
101286.386434
101288.802753
101296.471089
101296.471089
101301.241276
101315.712198
101288.802753
101292.236217
101324.371370
101322.524978
101306.247051
101292.236217
101285.139087
101296.471089
101301.241276
101315.712198
101319.576839
101292.236217
101322.524978
101292.236217
101286.386434
101301.241276
101286.386434
101319.576839
101319.576839
101325.000000
101322.524978
101324.371370
101285.139087
101285.139087
101319.576839
101325.000000
101306.247051
101315.712198
101301.241276
101324.371370
101288.802753
101296.471089
101286.386434
101311.173882
101322.524978
101324.371370
101306.247051
101311.173882
101268.028184
101311.725267
101298.197062
101284.224619
101291.042483
101324.101520
101305.238810
101269.810974
101325.000000
101305.238810
101298.197062
101273.264533
101278.171864
101268.028184
101278.171864
101291.042482
101284.224619
101273.264533
101284.224619
101317.248865
101311.725267
101273.264533
101321.462536
101298.197062
101291.042482
101268.028184
101291.042482
101321.462536
101269.810973
101325.000000
101269.810973
101311.725267
101278.171864
101324.101520
101317.248865
101268.028184
101317.248865
101321.462536
101278.171864
101317.248865
101269.810973
101273.264533
101324.101520
101311.725267
101305.238810
101324.101520
101284.224619
101321.462536
101298.197062
101305.238810
101277.163554
101313.853856
101308.407496
101281.560260
101302.494885
101308.407496
101278.660475
101290.762908
101281.560260
101296.487534
101290.762908
101313.853856
101281.560260
101322.029765
101324.245591
101302.494885
101285.680706
101285.680706
101277.163554
101290.762908
101296.487534
101285.680706
101313.853856
101285.680706
101322.029765
101318.491751
101278.660475
101278.660475
101296.487534
101318.491751
101318.491751
101322.029765
101325.000000
101324.245591
101318.491751
101277.163554
101277.163554
101325.000000
101313.853856
101302.494885
101296.487534
101281.560260
101324.245591
101290.762908
101278.660475
101308.407496
101322.029765
101324.245591
101302.494885
101308.407496
101257.682975
101309.314779
101293.330059
101276.820435
101284.876318
101323.938370
101301.650481
101259.789492
101325.000000
101301.650481
101293.330059
101269.668592
101284.876317
101276.820435
101263.870165
101257.682975
101269.668592
101263.870165
101276.820435
101309.314779
101263.870165
101315.841378
101320.820187
101257.682975
101293.330059
101284.876317
101284.876317
101320.820187
101259.789492
101325.000000
101259.789492
101309.314779
101269.668592
101315.841378
101323.938370
101257.682975
101269.668592
101315.841378
101320.820187
101315.841378
101263.870165
101259.789492
101309.314779
101323.938370
101301.650481
101276.820434
101323.938370
101320.820187
101293.330059
101301.650481
101268.028184
101305.238810
101311.725267
101273.264534
101298.197062
101305.238810
101269.810974
101284.224619
101291.042483
101273.264533
101311.725267
101284.224619
101273.264533
101321.462536
101298.197062
101324.101520
101278.171864
101278.171864
101268.028184
101278.171864
101284.224619
101291.042482
101311.725267
101278.171864