# vtk DataFile Version 3.0
Time Step 80, Physical Time = 0.000800s, Residual = 4.49e-03
ASCII
DATASET UNSTRUCTURED_GRID
POINTS 5000 float
0.318712 0.385257 0.000000
-0.318712 0.385257 0.000000
-0.318712 -0.385257 0.000000
0.318712 -0.385257 0.000000
0.093691 0.491144 0.000000
-0.093691 0.491144 0.000000
-0.093691 -0.491144 0.000000
0.093691 -0.491144 0.000000
0.404508 0.293893 0.000000
-0.404508 0.293893 0.000000
-0.404508 -0.293893 0.000000
0.404508 -0.293893 0.000000
0.438153 0.240877 0.000000
-0.438153 0.240877 0.000000
-0.438153 -0.240877 0.000000
0.438153 -0.240877 0.000000
0.500000 0.000000 0.000000
-0.500000 -0.000000 0.000000
0.364484 0.342274 0.000000
-0.364484 0.342274 0.000000
-0.364484 -0.342274 0.000000
0.364484 -0.342274 0.000000
0.496057 0.062667 0.000000
-0.496057 0.062667 0.000000
-0.496057 -0.062667 0.000000
0.496057 -0.062667 0.000000
0.212890 0.452414 0.000000
-0.212890 0.452414 0.000000
-0.212890 -0.452414 0.000000
0.212890 -0.452414 0.000000
0.154508 0.475528 0.000000
-0.154508 0.475528 0.000000
-0.154508 -0.475528 0.000000
0.154508 -0.475528 0.000000
0.267913 0.422164 0.000000
-0.267913 0.422164 0.000000
-0.267913 -0.422164 0.000000
0.267913 -0.422164 0.000000
0.031395 0.499013 0.000000
-0.031395 0.499013 0.000000
-0.031395 -0.499013 0.000000
0.031395 -0.499013 0.000000
0.464888 0.184062 0.000000
-0.464888 0.184062 0.000000
-0.464888 -0.184062 0.000000
0.464888 -0.184062 0.000000
0.484292 0.124345 0.000000
-0.484292 0.124345 0.000000
-0.484292 -0.124345 0.000000
0.484292 -0.124345 0.000000
-0.031454 0.499951 0.000000
0.438977 0.241329 0.000000
-0.268417 0.422957 0.000000
0.365169 0.342917 0.000000
-0.496990 -0.062784 0.000000
0.319311 -0.385981 0.000000
0.405269 0.294445 0.000000
-0.093867 0.492067 0.000000
0.500940 -0.000000 0.000000
-0.213290 0.453264 0.000000
-0.154799 0.476422 0.000000
0.031454 0.499951 0.000000
0.465762 0.184408 0.000000
0.319311 0.385981 0.000000
0.365169 -0.342917 0.000000
0.405269 -0.294445 0.000000
-0.365169 0.342917 0.000000
-0.319311 0.385981 0.000000
0.268417 0.422957 0.000000
0.213290 0.453264 0.000000
-0.319311 -0.385981 0.000000
0.154799 -0.476422 0.000000
-0.485202 -0.124579 0.000000
0.154799 0.476422 0.000000
0.268417 -0.422957 0.000000
0.093867 0.492067 0.000000
-0.031454 -0.499951 0.000000
-0.500940 0.000000 0.000000
0.438977 -0.241329 0.000000
-0.438977 -0.241329 0.000000
0.093867 -0.492067 0.000000
-0.485202 0.124579 0.000000
0.485202 0.124579 0.000000
-0.496990 0.062784 0.000000
0.213290 -0.453264 0.000000
0.031454 -0.499951 0.000000
0.496990 -0.062784 0.000000
0.465762 -0.184408 0.000000
-0.465762 -0.184408 0.000000
-0.213290 -0.453264 0.000000
-0.093867 -0.492067 0.000000
-0.405269 -0.294445 0.000000
0.496990 0.062784 0.000000
0.485202 -0.124579 0.000000
-0.154799 -0.476422 0.000000
-0.365169 -0.342917 0.000000
-0.465762 0.184408 0.000000
-0.438977 0.241329 0.000000
-0.405269 0.294445 0.000000
-0.268417 -0.422957 0.000000
-0.031523 0.501039 0.000000
0.439932 0.241854 0.000000
-0.269001 0.423877 0.000000
0.365964 0.343663 0.000000
-0.498071 -0.062921 0.000000
0.320005 -0.386820 0.000000
0.406150 0.295085 0.000000
-0.094071 0.493137 0.000000
0.502029 -0.000000 0.000000
-0.213754 0.454250 0.000000
-0.155136 0.477458 0.000000
0.031523 0.501039 0.000000
0.466775 0.184809 0.000000
0.365964 -0.343663 0.000000
0.406150 -0.295085 0.000000
0.320005 0.386820 0.000000
-0.365964 0.343663 0.000000
-0.320005 0.386820 0.000000
0.269001 0.423877 0.000000
0.213754 0.454250 0.000000
-0.320005 -0.386820 0.000000
0.155136 -0.477458 0.000000
-0.486257 -0.124850 0.000000
0.155136 0.477458 0.000000
0.269001 -0.423877 0.000000
0.094071 0.493137 0.000000
-0.031523 -0.501039 0.000000
-0.502029 0.000000 0.000000
0.439932 -0.241854 0.000000
-0.439932 -0.241854 0.000000
0.094071 -0.493137 0.000000
-0.486257 0.124850 0.000000
0.486257 0.124850 0.000000
-0.498071 0.062921 0.000000
0.213754 -0.454250 0.000000
0.031523 -0.501039 0.000000
0.466775 -0.184809 0.000000
0.498071 -0.062921 0.000000
-0.466775 -0.184809 0.000000
-0.213754 -0.454250 0.000000
-0.094071 -0.493137 0.000000
-0.406150 -0.295085 0.000000
0.498071 0.062921 0.000000
-0.155136 -0.477458 0.000000
0.486257 -0.124850 0.000000
-0.365964 -0.343663 0.000000
-0.466775 0.184809 0.000000
-0.439932 0.241854 0.000000
-0.406150 0.295085 0.000000
-0.269001 -0.423877 0.000000
-0.031604 0.502329 0.000000
0.441064 0.242477 0.000000
-0.269693 0.424969 0.000000
0.366906 0.344547 0.000000
-0.499353 -0.063083 0.000000
0.320829 -0.387816 0.000000
0.407196 0.295845 0.000000
-0.094313 0.494407 0.000000
0.503322 -0.000000 0.000000
-0.214304 0.455419 0.000000
-0.155535 0.478688 0.000000
0.031604 0.502329 0.000000
0.467977 0.185285 0.000000
0.366906 -0.344547 0.000000
0.407196 -0.295845 0.000000
0.320829 0.387816 0.000000
0.269693 0.424969 0.000000
-0.366906 0.344547 0.000000
-0.320829 0.387816 0.000000
0.214304 0.455419 0.000000
-0.320829 -0.387816 0.000000
0.155535 -0.478688 0.000000
-0.487509 -0.125171 0.000000
0.155535 0.478688 0.000000
0.269693 -0.424969 0.000000
-0.031604 -0.502329 0.000000
0.094313 0.494407 0.000000
-0.503322 0.000000 0.000000
0.441064 -0.242477 0.000000
-0.441064 -0.242477 0.000000
-0.487509 0.125171 0.000000
0.094313 -0.494407 0.000000
0.487509 0.125171 0.000000
-0.499353 0.063083 0.000000
0.214304 -0.455419 0.000000
0.031604 -0.502329 0.000000
0.467977 -0.185285 0.000000
0.499353 -0.063083 0.000000
-0.467977 -0.185285 0.000000
-0.214304 -0.455419 0.000000
-0.094313 -0.494407 0.000000
-0.407196 -0.295845 0.000000
0.499353 0.063083 0.000000
-0.155535 -0.478688 0.000000
0.487509 -0.125171 0.000000
-0.467977 0.185285 0.000000
-0.366906 -0.344547 0.000000
-0.441064 0.242477 0.000000
-0.407196 0.295845 0.000000
-0.269693 -0.424969 0.000000
-0.031700 0.503862 0.000000
0.442411 0.243217 0.000000
-0.270517 0.426266 0.000000
0.368026 0.345599 0.000000
-0.500877 -0.063276 0.000000
0.321809 -0.389000 0.000000
0.408439 0.296748 0.000000
-0.094601 0.495916 0.000000
0.504858 -0.000000 0.000000
-0.214958 0.456810 0.000000
-0.156010 0.480149 0.000000
0.031700 0.503862 0.000000
0.469405 0.185851 0.000000
0.368026 -0.345599 0.000000
0.408439 -0.296748 0.000000
0.321809 0.389000 0.000000
0.270517 0.426266 0.000000
-0.368026 0.345599 0.000000
-0.321809 0.389000 0.000000
0.214958 0.456810 0.000000
-0.321809 -0.389000 0.000000
0.156010 -0.480149 0.000000
0.270517 -0.426266 0.000000
-0.488997 -0.125553 0.000000
0.156010 0.480149 0.000000
-0.031700 -0.503862 0.000000
0.094601 0.495916 0.000000
-0.504858 0.000000 0.000000
0.442411 -0.243217 0.000000
-0.442411 -0.243217 0.000000
-0.488997 0.125553 0.000000
0.094601 -0.495916 0.000000
0.488997 0.125553 0.000000
-0.500877 0.063276 0.000000
0.214958 -0.456810 0.000000
0.031700 -0.503862 0.000000
0.469405 -0.185851 0.000000
0.500877 -0.063276 0.000000
-0.469405 -0.185851 0.000000
-0.214958 -0.456810 0.000000
-0.094601 -0.495916 0.000000
-0.408439 -0.296748 0.000000
-0.469405 0.185851 0.000000
0.500877 0.063276 0.000000
-0.156010 -0.480149 0.000000
0.488997 -0.125553 0.000000
-0.368026 -0.345599 0.000000
-0.442411 0.243217 0.000000
-0.408439 0.296748 0.000000
-0.270517 -0.426266 0.000000
-0.031815 0.505686 0.000000
0.444012 0.244098 0.000000
-0.271496 0.427809 0.000000
0.369358 0.346850 0.000000
-0.502691 -0.063505 0.000000
0.322974 -0.390408 0.000000
0.409918 0.297823 0.000000
-0.094943 0.497711 0.000000
0.506686 -0.000000 0.000000
-0.215736 0.458463 0.000000
-0.156575 0.481887 0.000000
0.031815 0.505686 0.000000
0.369358 -0.346850 0.000000
0.409918 -0.297823 0.000000
0.471105 0.186524 0.000000
0.322974 0.390408 0.000000
0.271496 0.427809 0.000000
-0.369358 0.346850 0.000000
-0.322974 0.390408 0.000000
0.215736 0.458463 0.000000
0.156575 -0.481887 0.000000
-0.322974 -0.390408 0.000000
0.271496 -0.427809 0.000000
-0.490768 -0.126008 0.000000
0.156575 0.481887 0.000000
-0.031815 -0.505686 0.000000
0.094943 0.497711 0.000000
-0.506686 0.000000 0.000000
0.444012 -0.244098 0.000000
-0.490768 0.126008 0.000000
-0.444012 -0.244098 0.000000
0.094943 -0.497711 0.000000
0.490768 0.126008 0.000000
-0.502691 0.063505 0.000000
0.215736 -0.458463 0.000000
0.031815 -0.505686 0.000000
0.471105 -0.186524 0.000000
-0.471105 -0.186524 0.000000
0.502691 -0.063505 0.000000
-0.215736 -0.458463 0.000000
-0.094943 -0.497711 0.000000
-0.409918 -0.297823 0.000000
-0.471105 0.186524 0.000000
0.502691 0.063505 0.000000
-0.156575 -0.481887 0.000000
0.490768 -0.126008 0.000000
-0.369358 -0.346850 0.000000
-0.444012 0.244098 0.000000
-0.409918 0.297823 0.000000
-0.271496 -0.427809 0.000000
-0.031952 0.507855 0.000000
0.445917 0.245145 0.000000
-0.272661 0.429644 0.000000
0.370943 0.348338 0.000000
-0.504847 -0.063777 0.000000
0.324359 -0.392083 0.000000
0.411676 0.299100 0.000000
-0.095351 0.499846 0.000000
0.508859 -0.000000 0.000000
-0.216662 0.460430 0.000000
-0.157246 0.483954 0.000000
0.031952 0.507855 0.000000
0.370943 -0.348338 0.000000
0.411676 -0.299100 0.000000
0.324359 0.392083 0.000000
0.473126 0.187324 0.000000
0.272661 0.429644 0.000000
-0.370943 0.348338 0.000000
-0.324359 0.392083 0.000000
0.216662 0.460430 0.000000
0.157246 -0.483954 0.000000
-0.324359 -0.392083 0.000000
0.272661 -0.429644 0.000000
0.157246 0.483954 0.000000
-0.492873 -0.126548 0.000000
-0.031952 -0.507855 0.000000
0.095351 0.499846 0.000000
0.445917 -0.245145 0.000000
-0.508859 0.000000 0.000000
-0.492873 0.126548 0.000000
-0.445917 -0.245145 0.000000
0.095351 -0.499846 0.000000
-0.504847 0.063777 0.000000
0.216662 -0.460430 0.000000
0.492873 0.126548 0.000000
0.031952 -0.507855 0.000000
0.473126 -0.187324 0.000000
-0.473126 -0.187324 0.000000
0.504847 -0.063777 0.000000
-0.216662 -0.460430 0.000000
-0.095351 -0.499846 0.000000
-0.473126 0.187324 0.000000
-0.411676 -0.299100 0.000000
-0.157246 -0.483954 0.000000
0.504847 0.063777 0.000000
0.492873 -0.126548 0.000000
-0.370943 -0.348338 0.000000
-0.445917 0.245145 0.000000
-0.411676 0.299100 0.000000
-0.272661 -0.429644 0.000000
0.318712 0.385257 0.100000
-0.318712 0.385257 0.100000
[...]
POINT_DATA 5000
SCALARS pressure float 1
LOOKUP_TABLE default
101724.051741
101724.051741
101724.051741
101724.051741
101724.051741
101724.051741
101724.051741
101724.051741
101724.051741
101724.051741
101724.051741
101724.051741
101724.051741
101724.051741
101724.051741
101724.051741
101325.000000
101325.000000
101325.000000
101325.000000
101325.000000
101325.000000
101325.000000
101325.000000
101325.000000
101325.000000
101325.000000
101325.000000
101325.000000
101325.000000
101325.000000
101325.000000
101325.000000
101325.000000
101325.000000
101325.000000
101325.000000
101325.000000
101325.000000
101325.000000
101325.000000
101325.000000
101325.000000
101325.000000
101325.000000
101325.000000
101325.000000
101325.000000
101325.000000
101325.000000
101323.808243
101324.722314
101324.147046
101324.439327
101324.981205
101324.289665
101324.586628
101323.845536
101325.000000
101324.020432
101323.917779
101323.808243
101324.837859
101324.289665
101324.439327
101324.586628
101324.439327
101324.289665
101324.147046
101324.020432
101324.289665
101323.917779
101324.926002
101323.917779
101324.147046
101323.845536
101323.808243
101325.000000
101324.722314
101324.722314
101323.845536
101324.926002
101324.926002
101324.981205
101324.020432
101323.808243
101324.981205
101324.837859
101324.837859
101324.020432
101323.845536
101324.586628
101324.981205
101324.926002
101323.917779
101324.439327
101324.837859
101324.722314
101324.586628
101324.147046
101322.434680
101324.402267
101323.163971
101323.793121
101324.959543
101323.470965
101324.110196
101322.514955
101325.000000
101322.891429
101322.670462
101322.434680
101324.650983
101323.793121
101324.110196
101323.470965
101323.793121
101323.470965
101323.163971
101322.891429
101323.470965
101322.670462
101324.840716
101322.670462
101323.163971
101322.514955
101322.434680
101325.000000
101324.402267
101324.402267
101322.514955
101324.840716
101324.840716
101324.959543
101322.891429
101322.434680
101324.650983
101324.959543
101324.650983
101322.891429
101322.514955
101324.110196
101324.959543
101322.670462
101324.840716
101323.793121
101324.650983
101324.402267
101324.110196
101323.163971
101320.816602
101324.025246
101322.005894
101323.031880
101324.934025
101322.506525
101323.548951
101320.947511
101325.000000
101321.561445
101321.201104
101320.816602
101324.430840
101323.031880
101323.548951
101322.506525
101322.005894
101323.031880
101322.506525
101321.561445
101322.506525
101321.201104
101324.740247
101321.201104
101322.005894
101320.816602
101320.947511
101325.000000
101324.025246
101324.025246
101324.740247
101320.947511
101324.740247
101324.934025
101321.561445
101320.816602
101324.430840
101324.934025
101324.430840
101321.561445
101320.947511
101323.548951
101324.934025
101321.201104
101324.740247
101324.430840
101323.031880
101324.025246
101323.548951
101322.005894
101318.909364
101323.580850
101320.640862
101322.134602
101324.903947
101321.369734
101322.887408
101319.099955
101325.000000
101319.993786
101319.469162
101318.909364
101324.171356
101322.134602
101322.887408
101321.369734
101320.640862
101322.134602
101321.369734
101319.993786
101321.369734
101319.469162
101320.640862
101324.621824
101319.469162
101318.909364
101319.099955
101325.000000
101323.580850
101323.580850
101324.621824
101319.099955
101324.621824
101324.903947
101319.993786
101318.909364
101324.171356
101324.903947
101324.171356
101319.993786
101319.099955
101322.887408
101324.171356
101324.903947
101319.469162
101324.621824
101322.134602
101323.580850
101322.887408
101320.640862
101316.663394
101323.057527
101319.033395
101321.077964
101324.868527
101320.031044
101322.108373
101316.924267
101325.000000
101318.147704
101317.429621
101316.663394
101321.077964
101322.108373
101323.865787
101320.031044
101319.033395
101321.077964
101320.031044
101318.147704
101317.429621
101320.031044
101319.033395
101324.482368
101317.429621
101316.663394
101316.924267
101325.000000
101323.057527
101324.482368
101323.057527
101316.924267
101324.482368
101324.868527
101318.147704
101316.663394
101323.865787
101323.865787
101324.868527
101318.147704
101316.924267
101322.108373
101323.865787
101324.868527
101317.429621
101324.482368
101321.077964
101323.057527
101322.108373
101319.033395
101314.023946
101322.442522
101317.144313
101319.836210
101324.826901
101318.457826
101321.192856
101314.367414
101325.000000
101315.978203
101315.032769
101314.023946
101319.836210
101321.192856
101318.457826
101323.506685
101317.144313
101319.836210
101318.457826
101315.978203
101315.032769
101318.457826
101317.144313
101315.032769
101324.318481
101314.023946
101314.367414
101322.442522
101325.000000
101324.318481
101322.442522
101314.367414
101324.826901
101315.978203
101324.318481
101314.023946
101323.506685
101323.506685
101324.826901
101315.978203
101314.367414
101323.506685
101321.192856
101315.032769
101324.826901
101324.318481
101319.836210
101322.442522
101321.192856
101317.144313
101724.051741
101724.051741
101724.051741
101724.051741
101724.051741
101724.051741
101724.051741
101724.051741
101724.051741
101724.051741
101724.051741
101724.051741
101724.051741
101724.051741
101724.051741
101724.051741
101325.000000
101325.000000
101325.000000
101325.000000
101325.000000
101325.000000
101325.000000
101325.000000
101325.000000
101325.000000
101325.000000
101325.000000
101325.000000
101325.000000
101325.000000
101325.000000
101325.000000
101325.000000
101325.000000
101325.000000
101325.000000
101325.000000
101325.000000
101325.000000
101325.000000
101325.000000
101325.000000
101325.000000
101325.000000
101325.000000
101325.000000
101325.000000
101325.000000
101325.000000
101323.808243
101324.722314
101323.845536
101324.586628
101324.586628
101323.917779
101324.439327
101323.917779
101324.147046
101324.020432
101324.147046
101324.289665
101324.722314
101323.808243
101324.981205
101323.917779
101324.439327
101324.837859
101324.926002
101324.020432
101324.289665
101323.845536
101324.289665
101324.147046
101324.926002
101324.722314
101325.000000
101324.020432
101324.926002
101323.845536
101324.020432
101324.837859
101324.837859
101325.000000
101324.981205
101324.439327
101323.808243
101323.808243
101324.289665
101324.981205
101324.722314
101324.837859
101324.586628
101324.981205
101323.917779
101323.845536
101324.147046
101324.926002
101324.439327
101324.586628
101310.930526
101321.721739
101318.380881
101314.930317
101324.778116
101316.614022
101320.119876
101311.370795
101325.000000
101313.435558
101312.223669
101310.930526
101318.380881
101320.119876
101316.614022
101323.085819
101314.930317
101313.435558
101318.380881
101316.614022
101312.223669
101316.614022
101314.930317
101312.223669
101324.126406
101310.930526
101311.370795
101321.721739
101325.000000
101324.126406
101321.721739
101311.370795
101313.435558
101324.778116
101324.126406
101310.930526
101323.085819
101323.085819
101324.778116
101313.435558
101323.085819
101311.370795
101320.119876
101312.223669
101324.778116
101324.126406
101318.380881
101321.721739
101320.119876
101314.930317
101322.434680
101324.402267
101322.514955
101324.110196
101324.110196
101323.793121
101322.670462
101322.670462
101323.163971
101322.891429
101323.163971
101323.470965
101324.402267
101322.434680
101324.959543
101322.670462
101323.793121
101324.650983
101324.840716
101322.891429
101323.470965
101322.514955
101323.470965
101323.163971
101324.840716
101324.402267
101322.891429
101325.000000
101324.840716
101322.514955
101322.891429
101324.650983
101324.650983
101324.959543
101325.000000
101323.793121
101322.434680
101322.434680
101323.470965
101324.959543
101324.402267
101324.650983
101324.110196
101324.959543
101322.670462
101322.514955
101323.163971
101324.840716
101323.793121
101324.110196
101320.816602
101324.025246
101320.947511
101323.548951
101323.548951
101323.031880
101321.201104
101321.201104
101322.005894
101321.561445
101322.005894
101322.506525
101324.025246
101324.934025
101320.816602
101321.201104
101323.031880
101324.740247
101324.430840
101321.561445
101322.506525
101320.947511
101322.506525
101322.005894
101324.740247
101324.025246
101321.561445
101325.000000
101324.740247
101320.947511
101321.561445
101324.430840
101324.430840
101324.934025
101325.000000
101323.031880
101320.816602
101320.816602
101322.506525
101324.934025
101324.025246
101324.430840
101323.548951
101324.934025
101321.201104
101320.947511
101322.005894
101324.740247
101323.031880
101323.548951
101307.313567
101320.878968
101316.679248
101312.341617
101324.721074
101314.458167
101318.865301
101307.867019
101325.000000
101310.462589
101308.939148
101307.313567
101318.865301
101316.679248
101314.458167
101322.593724
101312.341617
101310.462589
101316.679248
101314.458167
101308.939148
101312.341617
101314.458167
101308.939148
101323.901823
101307.313566
101320.878968
101307.867019
101325.000000
101323.901823
101320.878968
101307.867019
101310.462589
101324.721074
101323.901823
101307.313566
101322.593724
101322.593724
101324.721074
101310.462589
101322.593724
101307.867019
101318.865301
101308.939148
101324.721074
101320.878968
101323.901823
101316.679248
101312.341617
101318.865301
101318.909364
101323.580850
101319.099955
101322.887408
101322.887408
101322.134602
101319.469162
101319.469162
101320.640862
101320.640862
101319.993786
101321.369734
101323.580850
101324.903947
101318.909364
101319.469162
101322.134602
101324.621824
101324.171356
101319.993786
101321.369734
101319.099955
101321.369734
101320.640862
101324.621824
101323.580850
101319.993786
101325.000000
101324.621824
101319.099955
101319.993786
101324.171356
101324.171356
101324.903947
101325.000000
101322.134602
101318.909364
101318.909364
101321.369734
101324.903947
101323.580850
101324.171356
101322.887408
101324.903947
101319.469162
101319.099955
101320.640862
101324.621824
101322.134602
101322.887408
101316.663394
101323.057527
101322.108373
101316.924267
101322.108373
101321.077964
101317.429621
101317.429621
101319.033395
101319.033395
101318.147704
101320.031044
101323.057527
101324.868527
101317.429621
101316.663394
101321.077964
101324.482368
101318.147704
101323.865787
101320.031044
101316.924267
101319.033395
101320.031044
101324.482368
101323.057527
101318.147704
101325.000000
101316.924267
101324.482368
101318.147704
101323.865787
101323.865787
101324.868527
101325.000000
101321.077964
101316.663394
101316.663394
101320.031044
101324.868527
101323.057527
101323.865787
101322.108373
101317.429621
101316.924267
101324.868527
101319.033395
101324.482368
101321.077964
101322.108373
101303.092184
101319.895364
101314.693258
101309.320325
101324.654501
101311.942051
101317.401076
101303.777734
101325.000000
101306.992812
101305.105758
101303.092184
101317.401076
101314.693258
101311.942051
101309.320325
101322.019396
101306.992812
101314.693258
101311.942051
101305.105758
101309.320325
101311.942051
101305.105758
101323.639712
101303.092184
101319.895364
101303.777734
101325.000000
101323.639712
101303.777734
101319.895364
101306.992812
101324.654501
101323.639712
101303.092184
101322.019396
101322.019396
101322.019396
101306.992812
101324.654501
101303.777734
101305.105758
101317.401076
101324.654501
101319.895364
101323.639712
101314.693258
101309.320325
101317.401076
101314.023946
101322.442522
101321.192856
101314.367414
101321.192856
101319.836210
101315.032769
101315.032769
101317.144313
101317.144313
101315.978203
101318.457826
101322.442522
101324.826901
101315.032769
101314.023946
101319.836210
101324.318481
101315.978203
101323.506685
101318.457826
101317.144313
101314.367414
101318.457826
101324.318481
101322.442522
101315.978203
101325.000000
101314.367414
101324.318481
101315.978203
101323.506685
101323.506685
101324.826901
101325.000000
101319.836210
101314.023946
101314.023946
101318.457826
101323.506685
101322.442522
101324.826901
101321.192856
101315.032769
101314.367414
101317.144313
101324.826901
101324.318481
101319.836210
101321.192856
101310.930526
101321.721739
101320.119876
101320.119876
101318.380881
101311.370795
101312.223669
101312.223669
101314.930317
101314.930317
101313.435558
101316.614022
101321.721739
101324.778116
101312.223669
101310.930526
101318.380881
101324.126406
101313.435558
101323.085819
101316.614022
101314.930317
101311.370795
101324.126406
101321.721739
101316.614022
101313.435558
101311.370795
101325.000000
101313.435558
101324.126406
101323.085819
101323.085819
101324.778116
101325.000000
101310.930526
101318.380881
101310.930526
101316.614022
101323.085819
101321.721739
101324.778116
101320.119876
101312.223669
101311.370795
101314.930317
101324.778116
101324.126406
101318.380881
101320.119876
101298.195448
101318.754398
101312.389541
101305.815675
101324.577276
101309.023398
101315.702599
101299.034229
101325.000000
101302.967927
101300.659087
101298.195448
101315.702599
101312.389541
101309.023398
101305.815675
101302.967927
101321.353185
101300.659087
101312.389541
101309.023398
101305.815675
101300.659087
101309.023398
101323.335666
101318.754398
101298.195448
101299.034229
101325.000000
101323.335666
101299.034229
101318.754398
101302.967927
101324.577276
101323.335666
101298.195448
101321.353185
101321.353185
101321.353185
101302.967927
101324.577276
101299.034229
101300.659087
101315.702599
101318.754398
101324.577276
101323.335666
101312.389541
101305.815675
101315.702599
101307.313567
101320.878968
101318.865301
101318.865301
101316.679248
101308.939148
101307.867019
101308.939148
101312.341617
101312.341617
101314.458167
101310.462589
101320.878968
101308.939148
101324.721074
101307.313567
101316.679248
101323.901823
101310.462589
101322.593724
101314.458167
101312.341617
101307.867019
101320.878968
101323.901823
101314.458167
101310.462589
101307.867019
101310.462589
101325.000000
101323.901823
101322.593724
101322.593724
101324.721074
101325.000000
101307.313566
101307.313566
101316.679248
101322.593724
101314.458167
101320.878968
101324.721074
101318.865301
101308.939148
101307.867019
101312.341617
101323.901823
101324.721074
101316.679248
101318.865301
101292.542882
101317.437321
101309.730237
101301.770069
101324.488132
101305.654239
101313.741955
101293.558546
101325.000000
101295.526056
101298.321785
101292.542882
101313.741955
101309.730237
101305.654239
101301.770069
101298.321785
101320.584141
101295.526056
101301.770069
101309.730237
101305.654239
101295.526056
101322.984690
101317.437321
101305.654239
101292.542882
101293.558546
101322.984690
101325.000000
101293.558546
101317.437321
101298.321785
101324.488132
101292.542882
101322.984690
101320.584141
101320.584141
101320.584141
101298.321785
101293.558546
101324.488132
101295.526056
101313.741955
101317.437321
101324.488132
101322.984690
101309.730237
101301.770069
101313.741955
101303.092184
101319.895364
101317.401076
101317.401076
101314.693258
101305.105758
101303.777734
101305.105758
101309.320325
101309.320325
101311.942051
101306.992812
101319.895364
101305.105758
101324.654501
101314.693258
101323.639712
101303.092184
101306.992812
101322.019396
101311.942051
101309.320325
101319.895364
101303.777734
101323.639712
101306.992812
101311.942051
101306.992812
101303.777734
101325.000000
101323.639712
101322.019396
101322.019396
101324.654501
101325.000000
101303.092184
101303.092184
101314.693258
101322.019396
101311.942051
101319.895364
101324.654501
101305.105758
101317.401076
101303.777734
101309.320325
101323.639712
101324.654501
101314.693258
101317.401076
101298.195448
101318.754398
101315.702599
101300.659087
101312.389541
101315.702599
101299.034229
101300.659087
101305.815675
101305.815675
101309.023398
101318.754398
101302.967927
101300.659087
101324.577276
101312.389541
101323.335666
101298.195448
101302.967927
101309.023398
101305.815675
101321.353185
101318.754398
101299.034229
101323.335666
101302.967927
101302.967927
101309.023398
101299.034229
101325.000000
101323.335666
101321.353185
101321.353185
101324.577276
101298.195448
101298.195448
101325.000000
101321.353185
101312.389541
101309.023398
101318.754398
101324.577276
101300.659087
101305.815675
101299.034229
101315.702599
101323.335666
101324.577276
101312.389541
101315.702599
101286.048730
101315.924149
101306.675001
101297.122130
101301.783460
101324.385715
101311.489400
101287.267612
101325.000000
101289.628789
101292.983900
101311.489400
101286.048730
101306.675001
101301.783460
101292.983900
101297.122130
101319.700598
101289.628789
101297.122130
101289.628789
101306.675001
101315.924149
101301.783460
101322.581459
101286.048730
101301.783460
101287.267612
101322.581459
101325.000000
101287.267612
101315.924149
101292.983900
101324.385715
101286.048730
101322.581459
101319.700598
101319.700598
101319.700598
101292.983900
101287.267612
101289.628789
101324.385715
101315.924149
101311.489400
101324.385715
101322.581459
101297.122130
101306.675001
101311.489400
101292.542882
101317.437321
101313.741955
101295.526056
101309.730237
101313.741955
101293.558546
101295.526056
101301.770069
101301.770069
101305.654239
101317.437321
101295.526056
101298.321785
101324.488132
101322.984690
101309.730237
101298.321785
101292.542882
101301.770069
101305.654239
101317.437321
101320.584141
101298.321785
101322.984690
101298.321785
101293.558546
101305.654239
101293.558546
101320.584141
101320.584141
101325.000000
101322.984690
101324.488132
101292.542882
101292.542882
101320.584141
101325.000000
101309.730237
101317.437321
101305.654239
101324.488132
101295.526056
101301.770069
101293.558546
101313.741955
101322.984690
101324.488132
101309.730237
101313.741955
101278.610170
101314.190926
101303.175459
101291.798268
101297.349776
101324.268405
101308.909268
101280.061823
101325.000000
101308.909268
101303.175459
101282.873916
101286.869756
101278.610170
101286.869756
101297.349776
101291.798268
101282.873916
101291.798268
101318.688567
101314.190926
101282.873916
101322.119588
101303.175459
101297.349776
101278.610170
101297.349776
101322.119588
101280.061823
101325.000000
101280.061823
101314.190926
101286.869756
101324.268405
101318.688567
101278.610170
101318.688567
101322.119588
101286.869756
101318.688567
101280.061823
101282.873916
101324.268405
101314.190926
101308.909268
101324.268405
101291.798268
101322.119588
101303.175459
101308.909268
101286.048730
101315.924149
101311.489400
101289.628789
101306.675001
101311.489400
101287.267612
101297.122130
101289.628789
101301.783460
101297.122130
101315.924149
101289.628789
101322.581459
101324.385715
101306.675001
101292.983900
101292.983900
101286.048730
101297.122130
101301.783460
101292.983900
101315.924149
101292.983900
101322.581459
101319.700598
101287.267612
101287.267612
101301.783460
101319.700598
101319.700598
101322.581459
101325.000000
101324.385715
101319.700598
101286.048730
101286.048730
101325.000000
101315.924149
101306.675001
101301.783460
101289.628789
101324.385715
101297.122130
101287.267612
101311.489400
101322.581459
101324.385715
101306.675001
101311.489400
101270.186488
101312.228163
101299.212457
101285.769342
101292.328919
101324.135558
101305.987437
101271.901739
101325.000000
101305.987437
101299.212457
101279.945887
101292.328919
101285.769342
101275.224465
101270.186488
101279.945887
101275.224465
101285.769342
101312.228163
101275.224465
101317.542507
101321.596549
101270.186488
101299.212457
101292.328919
101292.328919
101321.596549
101271.901739
101325.000000
101271.901739
101312.228163
101279.945887
101317.542507
101324.135558
101270.186488
101279.945887
101317.542507
101321.596549
101317.542507
101275.224465
101271.901738
101312.228163
101324.135558
101305.987437
101285.769342
101324.135558
101321.596549
101299.212457
101305.987437
101278.610170
101308.909268
101314.190926
101282.873916
101303.175459
101308.909268
101280.061823
101291.798268
101297.349776
101282.873916
101314.190926
101291.798268
101282.873916
101322.119588
101303.175459
101324.268405
101286.869756
101286.869756
101278.610170
101286.869756
101291.798268
101297.349776
101314.190926
101286.869756