# vtk DataFile Version 3.0
Time Step 192, Physical Time = 0.001920s, Residual = 1.47e-03
ASCII
DATASET UNSTRUCTURED_GRID
POINTS 5000 float
0.318712 0.385257 0.000000
-0.318712 0.385257 0.000000
-0.318712 -0.385257 0.000000
0.318712 -0.385257 0.000000
0.093691 0.491144 0.000000
-0.093691 0.491144 0.000000
-0.093691 -0.491144 0.000000
0.093691 -0.491144 0.000000
0.404508 0.293893 0.000000
-0.404508 0.293893 0.000000
-0.404508 -0.293893 0.000000
0.404508 -0.293893 0.000000
0.438153 0.240877 0.000000
-0.438153 0.240877 0.000000
-0.438153 -0.240877 0.000000
0.438153 -0.240877 0.000000
0.500000 0.000000 0.000000
-0.500000 -0.000000 0.000000
0.364484 0.342274 0.000000
-0.364484 0.342274 0.000000
-0.364484 -0.342274 0.000000
0.364484 -0.342274 0.000000
0.496057 0.062667 0.000000
-0.496057 0.062667 0.000000
-0.496057 -0.062667 0.000000
0.496057 -0.062667 0.000000
0.212890 0.452414 0.000000
-0.212890 0.452414 0.000000
-0.212890 -0.452414 0.000000
0.212890 -0.452414 0.000000
0.154508 0.475528 0.000000
-0.154508 0.475528 0.000000
-0.154508 -0.475528 0.000000
0.154508 -0.475528 0.000000
0.267913 0.422164 0.000000
-0.267913 0.422164 0.000000
-0.267913 -0.422164 0.000000
0.267913 -0.422164 0.000000
0.031395 0.499013 0.000000
-0.031395 0.499013 0.000000
-0.031395 -0.499013 0.000000
0.031395 -0.499013 0.000000
0.464888 0.184062 0.000000
-0.464888 0.184062 0.000000
-0.464888 -0.184062 0.000000
0.464888 -0.184062 0.000000
0.484292 0.124345 0.000000
-0.484292 0.124345 0.000000
-0.484292 -0.124345 0.000000
0.484292 -0.124345 0.000000
-0.031454 0.499951 0.000000
0.438977 0.241329 0.000000
-0.268417 0.422957 0.000000
0.365169 0.342917 0.000000
-0.496990 -0.062784 0.000000
0.319311 -0.385981 0.000000
0.405269 0.294445 0.000000
-0.093867 0.492067 0.000000
0.500940 -0.000000 0.000000
-0.213290 0.453264 0.000000
-0.154799 0.476422 0.000000
0.031454 0.499951 0.000000
0.465762 0.184408 0.000000
0.319311 0.385981 0.000000
0.365169 -0.342917 0.000000
0.405269 -0.294445 0.000000
-0.365169 0.342917 0.000000
-0.319311 0.385981 0.000000
0.268417 0.422957 0.000000
0.213290 0.453264 0.000000
-0.319311 -0.385981 0.000000
0.154799 -0.476422 0.000000
-0.485202 -0.124579 0.000000
0.154799 0.476422 0.000000
0.268417 -0.422957 0.000000
0.093867 0.492067 0.000000
-0.031454 -0.499951 0.000000
-0.500940 0.000000 0.000000
0.438977 -0.241329 0.000000
-0.438977 -0.241329 0.000000
0.093867 -0.492067 0.000000
-0.485202 0.124579 0.000000
0.485202 0.124579 0.000000
-0.496990 0.062784 0.000000
0.213290 -0.453264 0.000000
0.031454 -0.499951 0.000000
0.496990 -0.062784 0.000000
0.465762 -0.184408 0.000000
-0.465762 -0.184408 0.000000
-0.213290 -0.453264 0.000000
-0.093867 -0.492067 0.000000
-0.405269 -0.294445 0.000000
0.496990 0.062784 0.000000
0.485202 -0.124579 0.000000
-0.154799 -0.476422 0.000000
-0.365169 -0.342917 0.000000
-0.465762 0.184408 0.000000
-0.438977 0.241329 0.000000
-0.405269 0.294445 0.000000
-0.268417 -0.422957 0.000000
-0.031523 0.501039 0.000000
0.439932 0.241854 0.000000
-0.269001 0.423877 0.000000
0.365964 0.343663 0.000000
-0.498071 -0.062921 0.000000
0.320005 -0.386820 0.000000
0.406150 0.295085 0.000000
-0.094071 0.493137 0.000000
0.502029 -0.000000 0.000000
-0.213754 0.454250 0.000000
-0.155136 0.477458 0.000000
0.031523 0.501039 0.000000
0.466775 0.184809 0.000000
0.365964 -0.343663 0.000000
0.406150 -0.295085 0.000000
0.320005 0.386820 0.000000
-0.365964 0.343663 0.000000
-0.320005 0.386820 0.000000
0.269001 0.423877 0.000000
0.213754 0.454250 0.000000
-0.320005 -0.386820 0.000000
0.155136 -0.477458 0.000000
-0.486257 -0.124850 0.000000
0.155136 0.477458 0.000000
0.269001 -0.423877 0.000000
0.094071 0.493137 0.000000
-0.031523 -0.501039 0.000000
-0.502029 0.000000 0.000000
0.439932 -0.241854 0.000000
-0.439932 -0.241854 0.000000
0.094071 -0.493137 0.000000
-0.486257 0.124850 0.000000
0.486257 0.124850 0.000000
-0.498071 0.062921 0.000000
0.213754 -0.454250 0.000000
0.031523 -0.501039 0.000000
0.466775 -0.184809 0.000000
0.498071 -0.062921 0.000000
-0.466775 -0.184809 0.000000
-0.213754 -0.454250 0.000000
-0.094071 -0.493137 0.000000
-0.406150 -0.295085 0.000000
0.498071 0.062921 0.000000
-0.155136 -0.477458 0.000000
0.486257 -0.124850 0.000000
-0.365964 -0.343663 0.000000
-0.466775 0.184809 0.000000
-0.439932 0.241854 0.000000
-0.406150 0.295085 0.000000
-0.269001 -0.423877 0.000000
-0.031604 0.502329 0.000000
0.441064 0.242477 0.000000
-0.269693 0.424969 0.000000
0.366906 0.344547 0.000000
-0.499353 -0.063083 0.000000
0.320829 -0.387816 0.000000
0.407196 0.295845 0.000000
-0.094313 0.494407 0.000000
0.503322 -0.000000 0.000000
-0.214304 0.455419 0.000000
-0.155535 0.478688 0.000000
0.031604 0.502329 0.000000
0.467977 0.185285 0.000000
0.366906 -0.344547 0.000000
0.407196 -0.295845 0.000000
0.320829 0.387816 0.000000
0.269693 0.424969 0.000000
-0.366906 0.344547 0.000000
-0.320829 0.387816 0.000000
0.214304 0.455419 0.000000
-0.320829 -0.387816 0.000000
0.155535 -0.478688 0.000000
-0.487509 -0.125171 0.000000
0.155535 0.478688 0.000000
0.269693 -0.424969 0.000000
-0.031604 -0.502329 0.000000
0.094313 0.494407 0.000000
-0.503322 0.000000 0.000000
0.441064 -0.242477 0.000000
-0.441064 -0.242477 0.000000
-0.487509 0.125171 0.000000
0.094313 -0.494407 0.000000
0.487509 0.125171 0.000000
-0.499353 0.063083 0.000000
0.214304 -0.455419 0.000000
0.031604 -0.502329 0.000000
0.467977 -0.185285 0.000000
0.499353 -0.063083 0.000000
-0.467977 -0.185285 0.000000
-0.214304 -0.455419 0.000000
-0.094313 -0.494407 0.000000
-0.407196 -0.295845 0.000000
0.499353 0.063083 0.000000
-0.155535 -0.478688 0.000000
0.487509 -0.125171 0.000000
-0.467977 0.185285 0.000000
-0.366906 -0.344547 0.000000
-0.441064 0.242477 0.000000
-0.407196 0.295845 0.000000
-0.269693 -0.424969 0.000000
-0.031700 0.503862 0.000000
0.442411 0.243217 0.000000
-0.270517 0.426266 0.000000
0.368026 0.345599 0.000000
-0.500877 -0.063276 0.000000
0.321809 -0.389000 0.000000
0.408439 0.296748 0.000000
-0.094601 0.495916 0.000000
0.504858 -0.000000 0.000000
-0.214958 0.456810 0.000000
-0.156010 0.480149 0.000000
0.031700 0.503862 0.000000
0.469405 0.185851 0.000000
0.368026 -0.345599 0.000000
0.408439 -0.296748 0.000000
0.321809 0.389000 0.000000
0.270517 0.426266 0.000000
-0.368026 0.345599 0.000000
-0.321809 0.389000 0.000000
0.214958 0.456810 0.000000
-0.321809 -0.389000 0.000000
0.156010 -0.480149 0.000000
0.270517 -0.426266 0.000000
-0.488997 -0.125553 0.000000
0.156010 0.480149 0.000000
-0.031700 -0.503862 0.000000
0.094601 0.495916 0.000000
-0.504858 0.000000 0.000000
0.442411 -0.243217 0.000000
-0.442411 -0.243217 0.000000
-0.488997 0.125553 0.000000
0.094601 -0.495916 0.000000
0.488997 0.125553 0.000000
-0.500877 0.063276 0.000000
0.214958 -0.456810 0.000000
0.031700 -0.503862 0.000000
0.469405 -0.185851 0.000000
0.500877 -0.063276 0.000000
-0.469405 -0.185851 0.000000
-0.214958 -0.456810 0.000000
-0.094601 -0.495916 0.000000
-0.408439 -0.296748 0.000000
-0.469405 0.185851 0.000000
0.500877 0.063276 0.000000
-0.156010 -0.480149 0.000000
0.488997 -0.125553 0.000000
-0.368026 -0.345599 0.000000
-0.442411 0.243217 0.000000
-0.408439 0.296748 0.000000
-0.270517 -0.426266 0.000000
-0.031815 0.505686 0.000000
0.444012 0.244098 0.000000
-0.271496 0.427809 0.000000
0.369358 0.346850 0.000000
-0.502691 -0.063505 0.000000
0.322974 -0.390408 0.000000
0.409918 0.297823 0.000000
-0.094943 0.497711 0.000000
0.506686 -0.000000 0.000000
-0.215736 0.458463 0.000000
-0.156575 0.481887 0.000000
0.031815 0.505686 0.000000
0.369358 -0.346850 0.000000
0.409918 -0.297823 0.000000
0.471105 0.186524 0.000000
0.322974 0.390408 0.000000
0.271496 0.427809 0.000000
-0.369358 0.346850 0.000000
-0.322974 0.390408 0.000000
0.215736 0.458463 0.000000
0.156575 -0.481887 0.000000
-0.322974 -0.390408 0.000000
0.271496 -0.427809 0.000000
-0.490768 -0.126008 0.000000
0.156575 0.481887 0.000000
-0.031815 -0.505686 0.000000
0.094943 0.497711 0.000000
-0.506686 0.000000 0.000000
0.444012 -0.244098 0.000000
-0.490768 0.126008 0.000000
-0.444012 -0.244098 0.000000
0.094943 -0.497711 0.000000
0.490768 0.126008 0.000000
-0.502691 0.063505 0.000000
0.215736 -0.458463 0.000000
0.031815 -0.505686 0.000000
0.471105 -0.186524 0.000000
-0.471105 -0.186524 0.000000
0.502691 -0.063505 0.000000
-0.215736 -0.458463 0.000000
-0.094943 -0.497711 0.000000
-0.409918 -0.297823 0.000000
-0.471105 0.186524 0.000000
0.502691 0.063505 0.000000
-0.156575 -0.481887 0.000000
0.490768 -0.126008 0.000000
-0.369358 -0.346850 0.000000
-0.444012 0.244098 0.000000
-0.409918 0.297823 0.000000
-0.271496 -0.427809 0.000000
-0.031952 0.507855 0.000000
0.445917 0.245145 0.000000
-0.272661 0.429644 0.000000
0.370943 0.348338 0.000000
-0.504847 -0.063777 0.000000
0.324359 -0.392083 0.000000
0.411676 0.299100 0.000000
-0.095351 0.499846 0.000000
0.508859 -0.000000 0.000000
-0.216662 0.460430 0.000000
-0.157246 0.483954 0.000000
0.031952 0.507855 0.000000
0.370943 -0.348338 0.000000
0.411676 -0.299100 0.000000
0.324359 0.392083 0.000000
0.473126 0.187324 0.000000
0.272661 0.429644 0.000000
-0.370943 0.348338 0.000000
-0.324359 0.392083 0.000000
0.216662 0.460430 0.000000
0.157246 -0.483954 0.000000
-0.324359 -0.392083 0.000000
0.272661 -0.429644 0.000000
0.157246 0.483954 0.000000
-0.492873 -0.126548 0.000000
-0.031952 -0.507855 0.000000
0.095351 0.499846 0.000000
0.445917 -0.245145 0.000000
-0.508859 0.000000 0.000000
-0.492873 0.126548 0.000000
-0.445917 -0.245145 0.000000
0.095351 -0.499846 0.000000
-0.504847 0.063777 0.000000
0.216662 -0.460430 0.000000
0.492873 0.126548 0.000000
0.031952 -0.507855 0.000000
0.473126 -0.187324 0.000000
-0.473126 -0.187324 0.000000
0.504847 -0.063777 0.000000
-0.216662 -0.460430 0.000000
-0.095351 -0.499846 0.000000
-0.473126 0.187324 0.000000
-0.411676 -0.299100 0.000000
-0.157246 -0.483954 0.000000
0.504847 0.063777 0.000000
0.492873 -0.126548 0.000000
-0.370943 -0.348338 0.000000
-0.445917 0.245145 0.000000
-0.411676 0.299100 0.000000
-0.272661 -0.429644 0.000000
0.318712 0.385257 0.100000
-0.318712 0.385257 0.100000
[...]
POINT_DATA 5000
SCALARS pressure float 1
LOOKUP_TABLE default
101814.253199
101814.253199
101814.253199
101814.253199
101814.253199
101814.253199
101814.253199
101814.253199
101814.253199
101814.253199
101814.253199
101814.253199
101814.253199
101814.253199
101814.253199
101814.253199
101325.000000
101325.000000
101325.000000
101325.000000
101325.000000
101325.000000
101325.000000
101325.000000
101325.000000
101325.000000
101325.000000
101325.000000
101325.000000
101325.000000
101325.000000
101325.000000
101325.000000
101325.000000
101325.000000
101325.000000
101325.000000
101325.000000
101325.000000
101325.000000
101325.000000
101325.000000
101325.000000
101325.000000
101325.000000
101325.000000
101325.000000
101325.000000
101325.000000
101325.000000
101323.538859
101324.659547
101323.954245
101324.312592
101324.976957
101324.129101
101324.493190
101323.584582
101325.000000
101323.799011
101323.673154
101323.538859
101324.801209
101324.129101
101324.312592
101324.493190
101324.312592
101324.129101
101323.954245
101323.799011
101324.129101
101323.673154
101324.909276
101323.673154
101323.954245
101323.584582
101323.538859
101325.000000
101324.659547
101324.659547
101323.584582
101324.909276
101324.909276
101324.976957
101323.799011
101323.538859
101324.976957
101324.801209
101324.801209
101323.799011
101323.584582
101324.493190
101324.976957
101324.909276
101323.673154
101324.312592
101324.801209
101324.659547
101324.493190
101323.954245
101321.854817
101324.267156
101322.748956
101323.520318
101324.950399
101323.125343
101323.909065
101321.953237
101325.000000
101322.414808
101322.143894
101321.854817
101324.572091
101323.520318
101323.909065
101323.125343
101323.520318
101323.125343
101322.748956
101322.414808
101323.125343
101322.143894
101324.804711
101322.143894
101322.748956
101321.953237
101321.854817
101325.000000
101324.267156
101324.267156
101321.953237
101324.804711
101324.804711
101324.950399
101322.414808
101321.854817
101324.572091
101324.950399
101324.572091
101322.414808
101321.953237
101323.909065
101324.950399
101322.143894
101324.804711
101323.520318
101324.572091
101324.267156
101323.909065
101322.748956
101319.870989
101323.804914
101321.329108
101322.587008
101324.919112
101321.942901
101323.220956
101320.031489
101325.000000
101320.784196
101320.342403
101319.870989
101324.302187
101322.587008
101323.220956
101321.942901
101321.329108
101322.587008
101321.942901
101320.784196
101321.942901
101320.342403
101324.681532
101320.342403
101321.329108
101319.870989
101320.031489
101325.000000
101323.804914
101323.804914
101324.681532
101320.031489
101324.681532
101324.919112
101320.784196
101319.870989
101324.302187
101324.919112
101324.302187
101320.784196
101320.031489
101323.220956
101324.919112
101320.342403
101324.681532
101324.302187
101322.587008
101323.804914
101323.220956
101321.329108
101317.532640
101323.260066
101319.655525
101321.486909
101324.882235
101320.549150
101322.409879
101317.766312
101325.000000
101318.862184
101318.218974
101317.532640
101323.984050
101321.486909
101322.409879
101320.549150
101319.655525
101321.486909
101320.549150
101318.862184
101320.549150
101318.218974
101319.655525
101324.536341
101318.218974
101317.532640
101317.766312
101325.000000
101323.260066
101323.260066
101324.536341
101317.766312
101324.536341
101324.882235
101318.862184
101317.532640
101323.984050
101324.882235
101323.984050
101318.862184
101317.766312
101322.409879
101323.984050
101324.882235
101318.218974
101324.536341
101321.486909
101323.260066
101322.409879
101319.655525
101314.778991
101322.618451
101317.684707
101320.191428
101324.838809
101318.907863
101321.454751
101315.098832
101325.000000
101316.598815
101315.718417
101314.778991
101320.191428
101321.454751
101323.609410
101318.907863
101317.684707
101320.191428
101318.907863
101316.598815
101315.718417
101318.907863
101317.684707
101324.365363
101315.718417
101314.778991
101315.098832
101325.000000
101322.618451
101324.365363
101322.618451
101315.098832
101324.365363
101324.838809
101316.598815
101314.778991
101323.609410
101323.609410
101324.838809
101316.598815
101315.098832
101321.454751
101323.609410
101324.838809
101315.718417
101324.365363
101320.191428
101322.618451
101321.454751
101317.684707
101311.542924
101321.864431
101315.368617
101318.668990
101324.787774
101316.979036
101320.332292
101311.964030
101325.000000
101313.938921
101312.779781
101311.542924
101318.668990
101320.332292
101316.979036
101323.169137
101315.368617
101318.668990
101316.979036
101313.938921
101312.779781
101316.979036
101315.368617
101312.779781
101324.164430
101311.542924
101311.964029
101321.864431
101325.000000
101324.164430
101321.864431
101311.964029
101324.787774
101313.938921
101324.164430
101311.542924
101323.169137
101323.169137
101324.787774
101313.938921
101311.964029
101323.169137
101320.332292
101312.779781
101324.787774
101324.164430
101318.668990
101321.864431
101320.332292
101315.368617
101814.253199
101814.253199
101814.253199
101814.253199
101814.253199
101814.253199
101814.253199
101814.253199
101814.253199
101814.253199
101814.253199
101814.253199
101814.253199
101814.253199
101814.253199
101814.253199
101325.000000
101325.000000
101325.000000
101325.000000
101325.000000
101325.000000
101325.000000
101325.000000
101325.000000
101325.000000
101325.000000
101325.000000
101325.000000
101325.000000
101325.000000
101325.000000
101325.000000
101325.000000
101325.000000
101325.000000
101325.000000
101325.000000
101325.000000
101325.000000
101325.000000
101325.000000
101325.000000
101325.000000
101325.000000
101325.000000
101325.000000
101325.000000
101325.000000
101325.000000
101323.538859
101324.659547
101323.584582
101324.493190
101324.493190
101323.673154
101324.312592
101323.673154
101323.954245
101323.799011
101323.954245
101324.129101
101324.659547
101323.538859
101324.976957
101323.673154
101324.312592
101324.801209
101324.909276
101323.799011
101324.129101
101323.584582
101324.129101
101323.954245
101324.909276
101324.659547
101325.000000
101323.799011
101324.909276
101323.584582
101323.799011
101324.801209
101324.801209
101325.000000
101324.976957
101324.312592
101323.538859
101323.538859
101324.129101
101324.976957
101324.659547
101324.801209
101324.493190
101324.976957
101323.673154
101323.584582
101323.954245
101324.909276
101324.312592
101324.493190
101307.750269
101320.980722
101316.884699
101312.654170
101324.727961
101314.718460
101319.016775
101308.290056
101325.000000
101310.821538
101309.335713
101307.750269
101316.884699
101319.016775
101314.718459
101322.653138
101312.654170
101310.821538
101316.884699
101314.718459
101309.335713
101314.718459
101312.654170
101309.335713
101323.928939
101307.750269
101308.290056
101320.980722
101325.000000
101323.928939
101320.980722
101308.290056
101310.821538
101324.727961
101323.928939
101307.750269
101322.653138
101322.653138
101324.727961
101310.821538
101322.653138
101308.290056
101319.016775
101309.335713
101324.727961
101323.928939
101316.884699
101320.980722
101319.016775
101312.654170
101321.854817
101324.267156
101321.953237
101323.909065
101323.909065
101323.520318
101322.143894
101322.143894
101322.748956
101322.414808
101322.748956
101323.125343
101324.267156
101321.854817
101324.950399
101322.143894
101323.520318
101324.572091
101324.804711
101322.414808
101323.125343
101321.953237
101323.125343
101322.748956
101324.804711
101324.267156
101322.414808
101325.000000
101324.804711
101321.953237
101322.414808
101324.572091
101324.572091
101324.950399
101325.000000
101323.520318
101321.854817
101321.854817
101323.125343
101324.950399
101324.267156
101324.572091
101323.909065
101324.950399
101322.143894
101321.953237
101322.748956
101324.804711
101323.520318
101323.909065
101319.870989
101323.804914
101320.031489
101323.220956
101323.220956
101322.587008
101320.342403
101320.342403
101321.329108
101320.784196
101321.329108
101321.942901
101323.804914
101324.919112
101319.870989
101320.342403
101322.587008
101324.681532
101324.302187
101320.784196
101321.942901
101320.031489
101321.942901
101321.329108
101324.681532
101323.804914
101320.784196
101325.000000
101324.681532
101320.031489
101320.784196
101324.302187
101324.302187
101324.919112
101325.000000
101322.587008
101319.870989
101319.870989
101321.942901
101324.919112
101323.804914
101324.302187
101323.220956
101324.919112
101320.342403
101320.031489
101321.329108
101324.681532
101322.587008
101323.220956
101303.315734
101319.947452
101314.798429
101309.480323
101324.658026
101312.075296
101317.478616
101303.994288
101325.000000
101307.176560
101305.308761
101303.315734
101317.478616
101314.798429
101312.075296
101322.049810
101309.480323
101307.176560
101314.798429
101312.075296
101305.308761
101309.480323
101312.075296
101305.308761
101323.653592
101303.315734
101319.947452
101303.994288
101325.000000
101323.653592
101319.947452
101303.994288
101307.176560
101324.658026
101323.653592
101303.315734
101322.049810
101322.049810
101324.658026
101307.176560
101322.049810
101303.994288
101317.478616
101305.308761
101324.658026
101319.947452
101323.653592
101314.798429
101309.480322
101317.478616
101317.532640
101323.260066
101317.766312
101322.409879
101322.409879
101321.486909
101318.218974
101318.218974
101319.655525
101319.655525
101318.862184
101320.549150
101323.260066
101324.882235
101317.532640
101318.218974
101321.486909
101324.536341
101323.984050
101318.862184
101320.549150
101317.766312
101320.549150
101319.655525
101324.536341
101323.260066
101318.862184
101325.000000
101324.536341
101317.766312
101318.862184
101323.984050
101323.984050
101324.882235
101325.000000
101321.486909
101317.532640
101317.532640
101320.549150
101324.882235
101323.260066
101323.984050
101322.409879
101324.882235
101318.218974
101317.766312
101319.655525
101324.536341
101321.486909
101322.409879
101314.778991
101322.618451
101321.454751
101315.098832
101321.454751
101320.191428
101315.718417
101315.718417
101317.684707
101317.684707
101316.598815
101318.907863
101322.618451
101324.838809
101315.718417
101314.778991
101320.191428
101324.365363
101316.598815
101323.609410
101318.907863
101315.098832
101317.684707
101318.907863
101324.365363
101322.618451
101316.598815
101325.000000
101315.098832
101324.365363
101316.598815
101323.609410
101323.609410
101324.838809
101325.000000
101320.191428
101314.778991
101314.778991
101318.907863
101324.838809
101322.618451
101323.609410
101321.454751
101315.718417
101315.098832
101324.838809
101317.684707
101324.365363
101320.191428
101321.454751
101298.140152
101318.741514
101312.363527
101305.776099
101324.576404
101308.990439
101315.683419
101298.980663
101325.000000
101302.922476
101300.608874
101298.140152
101315.683419
101312.363527
101308.990439
101305.776099
101321.345662
101302.922476
101312.363527
101308.990439
101300.608874
101305.776099
101308.990439
101300.608874
101323.332233
101298.140152
101318.741514
101298.980663
101325.000000
101323.332233
101298.980663
101318.741514
101302.922476
101324.576404
101323.332233
101298.140152
101321.345661
101321.345661
101321.345661
101302.922476
101324.576404
101298.980663
101300.608874
101315.683419
101324.576404
101318.741514
101323.332233
101312.363527
101305.776099
101315.683419
101311.542924
101321.864431
101320.332292
101311.964030
101320.332292
101318.668990
101312.779781
101312.779781
101315.368617
101315.368617
101313.938921
101316.979036
101321.864431
101324.787774
101312.779781
101311.542924
101318.668990
101324.164430
101313.938921
101323.169137
101316.979036
101315.368617
101311.964029
101316.979036
101324.164430
101321.864431
101313.938921
101325.000000
101311.964029
101324.164430
101313.938921
101323.169137
101323.169137
101324.787774
101325.000000
101318.668990
101311.542924
101311.542924
101316.979036
101323.169137
101321.864431
101324.787774
101320.332292
101312.779781
101311.964029
101315.368617
101324.787774
101324.164430
101318.668990
101320.332291
101307.750269
101320.980722
101319.016775
101319.016775
101316.884699
101308.290056
101309.335713
101309.335713
101312.654170
101312.654170
101310.821538
101314.718459
101320.980722
101324.727961
101309.335713
101307.750269
101316.884699
101323.928939
101310.821538
101322.653138
101314.718459
101312.654170
101308.290056
101323.928939
101320.980722
101314.718459
101310.821538
101308.290056
101325.000000
101310.821538
101323.928939
101322.653138
101322.653138
101324.727961
101325.000000
101307.750269
101316.884699
101307.750269
101314.718459
101322.653138
101320.980722
101324.727961
101319.016775
101309.335713
101308.290056
101312.654170
101324.727961
101323.928939
101316.884699
101319.016775
101292.136560
101317.342646
101309.539079
101301.479260
101324.481724
101305.412055
101313.601019
101293.164939
101325.000000
101297.987808
101295.157079
101292.136560
101313.601019
101309.539079
101305.412054
101301.479260
101297.987808
101320.528860
101295.157079
101309.539079
101305.412054
101301.479260
101295.157079
101305.412054
101322.959461
101317.342646
101292.136560
101293.164939
101325.000000
101322.959461
101293.164939
101317.342646
101297.987808
101324.481724
101322.959461
101292.136560
101320.528860
101320.528860
101320.528860
101297.987808
101324.481724
101293.164939
101295.157079
101313.601019
101317.342646
101324.481724
101322.959461
101309.539079
101301.479260
101313.601019
101303.315734
101319.947452
101317.478616
101317.478616
101314.798429
101305.308761
101303.994288
101305.308761
101309.480323
101309.480323
101312.075296
101307.176560
101319.947452
101305.308761
101324.658026
101303.315734
101314.798429
101323.653592
101307.176560
101322.049810
101312.075296
101309.480323
101303.994288
101319.947452
101323.653592
101312.075296
101307.176560
101303.994288
101307.176560
101325.000000
101323.653592
101322.049810
101322.049810
101324.658026
101325.000000
101303.315734
101303.315734
101314.798429
101322.049810
101312.075296
101319.947452
101324.658026
101317.478616
101305.308761
101303.994288
101309.480322
101323.653592
101324.658026
101314.798429
101317.478616
101285.206291
101315.727857
101306.278668
101296.519187
101324.372429
101301.281333
101311.197192
101286.451535
101325.000000
101288.863780
101292.291455
101285.206291
101311.197192
101306.278668
101301.281333
101296.519187
101292.291455
101319.585983
101288.863780
101296.519187
101306.278668
101301.281333
101288.863780
101322.529150
101315.727857
101301.281332
101285.206291
101286.451535
101322.529150
101325.000000
101286.451535
101315.727857
101292.291455
101324.372429
101285.206291
101322.529150
101319.585983
101319.585983
101319.585983
101292.291455
101286.451535
101324.372429
101288.863780
101311.197192
101315.727856
101324.372429
101322.529150
101306.278668
101296.519187
101311.197192
101298.140152
101318.741514
101315.683419
101315.683419
101312.363527
101300.608874
101298.980663
101300.608874
101305.776099
101305.776099
101308.990439
101302.922476
101318.741514
101300.608874
101324.576404
101312.363527
101323.332233
101298.140152
101302.922476
101321.345662
101308.990439
101305.776099
101318.741514
101298.980663
101323.332233
101302.922476
101308.990439
101302.922476
101298.980663
101325.000000
101323.332233
101321.345661
101321.345661
101324.576404
101325.000000
101298.140152
101298.140152
101312.363527
101321.345661
101308.990439
101318.741514
101324.576404
101300.608874
101315.683419
101298.980663
101305.776099
101323.332233
101324.576404
101312.363527
101315.683419
101292.136560
101317.342646
101313.601019
101295.157079
101309.539079
101313.601019
101293.164939
101295.157079
101301.479260
101301.479260
101305.412054
101317.342646
101297.987808
101295.157079
101324.481724
101309.539079
101322.959461
101292.136560
101297.987808
101305.412054
101301.479260
101320.528860
101317.342646
101293.164939
101322.959461
101297.987808
101297.987808
101305.412054
101293.164939
101325.000000
101322.959461
101320.528860
101320.528860
101324.481724
101292.136560
101292.136560
101325.000000
101320.528860
101309.539079
101305.412054
101317.342646
101324.481724
101295.157079
101301.479260
101293.164939
101313.601019
101322.959461
101324.481724
101309.539079
101313.601019
101277.244204
101313.872648
101302.532828
101290.820630
101296.535605
101324.246863
101308.435470
101278.738602
101325.000000
101281.633498
101285.746996
101308.435470
101277.244204
101302.532828
101296.535605
101285.746996
101290.820630
101318.502724
101281.633498
101290.820630
101281.633498
101302.532828
101313.872648
101296.535605
101322.034773
101277.244204
101296.535605
101278.738602
101322.034773
101325.000000
101278.738602
101313.872648
101285.746996
101324.246863
101277.244204
101322.034773
101318.502724
101318.502724
101318.502724
101285.746996
101278.738602
101281.633498
101324.246863
101313.872648
101308.435470
101324.246863
101322.034773
101290.820630
101302.532827
101308.435470
101285.206291
101315.727857
101311.197192
101288.863780
101306.278668
101311.197192
101286.451535
101288.863780
101296.519187
101296.519187
101301.281333
101315.727857
101288.863780
101292.291455
101324.372429
101322.529150
101306.278668
101292.291455
101285.206291
101296.519187
101301.281332
101315.727857
101319.585983
101292.291455
101322.529150
101292.291455
101286.451535
101301.281332
101286.451535
101319.585983
101319.585983
101325.000000
101322.529150
101324.372429
101285.206291
101285.206291
101319.585983
101325.000000
101306.278668
101315.727857
101301.281332
101324.372429
101288.863780
101296.519187
101286.451535
101311.197192
101322.529150
101324.372429
101306.278668
101311.197192
101268.124236
101311.747648
101298.242251
101284.293365
101291.099734
101324.103035
101305.272127
101269.904020
101325.000000
101305.272127
101298.242251
101273.351757
101278.250814
101268.124236
101278.250814
101291.099733
101284.293365
101273.351757
101284.293365
101317.261933
101311.747648
101273.351757
101321.468500
101298.242251
101291.099733
101268.124236
101291.099733
101321.468500
101269.904020
101325.000000
101269.904020
101311.747648
101278.250814
101324.103035
101317.261933
101268.124236
101317.261933
101321.468500
101278.250814
101317.261933
101269.904020
101273.351757
101324.103035
101311.747648
101305.272127
101324.103035
101284.293365
101321.468500
101298.242251
101305.272127
101277.244204
101313.872648
101308.435470
101281.633498
101302.532828
101308.435470
101278.738602
101290.820630
101281.633498
101296.535605
101290.820630
101313.872648
101281.633498
101322.034773
101324.246863
101302.532828
101285.746996
101285.746996
101277.244204
101290.820630
101296.535605
101285.746996
101313.872648
101285.746996
101322.034773
101318.502724
101278.738602
101278.738602
101296.535605
101318.502724
101318.502724
101322.034773
101325.000000
101324.246863
101318.502724
101277.244204
101277.244204
101325.000000
101313.872648
101302.532827
101296.535605
101281.633498
101324.246863
101290.820630
101278.738602
101308.435470
101322.034773
101324.246863
101302.532827
101308.435470
101257.796469
101309.341224
101293.383454
101276.901663
101284.943964
101323.940160
101301.689847
101259.899434
101325.000000
101301.689847
101293.383454
101269.761878
101284.943964
101276.901663
101263.973228
101257.796468
101269.761878
101263.973227
101276.901663
101309.341224
101263.973227
101315.856819
101320.827234
101257.796468
101293.383454
101284.943964
101284.943964
101320.827234
101259.899434
101325.000000
101259.899434
101309.341224
101269.761878
101315.856819
101323.940160
101257.796468
101269.761878
101315.856819
101320.827234
101315.856819
101263.973227
101259.899434
101309.341224
101323.940160
101301.689847
101276.901663
101323.940160
101320.827234
101293.383454
101301.689847
101268.124236
101305.272127
101311.747648
101273.351757
101298.242251
101305.272127
101269.904020
101284.293365
101291.099733
101273.351757
101311.747648
101284.293365
101273.351757
101321.468500
101298.242251
101324.103035
101278.250814
101278.250814
101268.124236
101278.250814
101284.293365
101291.099733
101311.747648
101278.250814