# Force and moment coefficients
# dragDir       : (1.00000000e+00 0.00000000e+00 0.00000000e+00)
# sideDir       : (0.00000000e+00 0.00000000e+00 -1.00000000e+00)
# liftDir       : (0.00000000e+00 1.00000000e+00 0.00000000e+00)
# rollAxis      : (1.00000000e+00 0.00000000e+00 0.00000000e+00)
# pitchAxis     : (0.00000000e+00 0.00000000e+00 -1.00000000e+00)
# yawAxis       : (0.00000000e+00 1.00000000e+00 0.00000000e+00)
# magUInf       : 3.00000000e+01
# lRef          : 1.00000000e+00
# Aref          : 1.00000000e+00
# CofR          : (0.00000000e+00 0.00000000e+00 0.00000000e+00)
#
# Time          	Cd              	Cd(f)           	Cd(r)           	Cl              	Cl(f)           	Cl(r)           	CmPitch         	CmRoll          	CmYaw           	Cs              	Cs(f)           	Cs(r)           
1               	1.50039522e-01	7.59343500e-02	7.41051716e-02	-3.65835681e-02	-1.01596640e-01	6.50130721e-02	-8.33048561e-02	9.14589202e-04	3.75098804e-03	1.18887193e-16	3.75098804e-03	-3.75098804e-03
2               	6.32820530e-01	3.19598689e-01	3.13221840e-01	-1.27536982e-01	-6.00386100e-02	-6.74983725e-02	3.72988124e-03	3.18842456e-03	1.58205132e-02	7.66946989e-16	1.58205132e-02	-1.58205132e-02
3               	7.80189651e-01	3.93754914e-01	3.86434736e-01	-1.46403560e-01	-3.70348494e-02	-1.09368711e-01	3.61669307e-02	3.66008900e-03	1.95047413e-02	9.84603306e-16	1.95047413e-02	-1.95047413e-02
4               	6.28326271e-01	3.17115911e-01	3.11210361e-01	-1.18111006e-01	2.70708125e-01	-3.88819131e-01	3.29763628e-01	2.95277515e-03	1.57081568e-02	9.43840460e-16	1.57081568e-02	-1.57081568e-02
5               	3.22718677e-01	1.59586822e-01	1.63131854e-01	7.09006447e-02	2.23870509e-01	-1.52969865e-01	1.88420187e-01	-1.77251612e-03	8.06796692e-03	6.52041413e-16	8.06796692e-03	-8.06796692e-03
6               	1.94853017e-02	4.43873482e-03	1.50465669e-02	2.12156641e-01	2.76148768e-01	-6.39921276e-02	1.70070448e-01	-5.30391602e-03	4.87132542e-04	2.71969985e-16	4.87132542e-04	-4.87132542e-04
7               	-1.92276629e-01	-1.02840641e-01	-8.94359875e-02	2.68093079e-01	5.81340497e-01	-3.13247419e-01	4.47293958e-01	-6.70232697e-03	-4.80691572e-03	-6.70065632e-17	-4.80691572e-03	4.80691572e-03
8               	-2.80199869e-01	-1.47481888e-01	-1.32717981e-01	2.95278139e-01	7.77673484e-01	-4.82395344e-01	6.30034414e-01	-7.38195349e-03	-7.00499671e-03	-2.63820705e-16	-7.00499671e-03	7.00499671e-03
9               	-2.56780581e-01	-1.35621855e-01	-1.21158726e-01	2.89262594e-01	8.21653316e-01	-5.32390723e-01	6.77022019e-01	-7.23156484e-03	-6.41951452e-03	-3.27333494e-16	-6.41951452e-03	6.41951452e-03
10              	-1.62493815e-01	-8.77661268e-02	-7.47276886e-02	2.60768764e-01	6.95902639e-01	-4.35133875e-01	5.65518257e-01	-6.51921911e-03	-4.06234538e-03	-3.21335533e-16	-4.06234538e-03	4.06234538e-03
11              	-3.97650268e-02	-2.48459621e-02	-1.49190647e-02	1.98537947e-01	5.98442940e-01	-3.99904992e-01	4.99173966e-01	-4.96344869e-03	-9.94125669e-04	-2.34551263e-16	-9.94125669e-04	9.94125669e-04
12              	6.70748868e-02	2.98421931e-02	3.72326937e-02	1.47810012e-01	5.16815106e-01	-3.69005093e-01	4.42910100e-01	-3.69525031e-03	1.67687217e-03	-9.35883514e-17	1.67687217e-03	-1.67687217e-03
13              	1.32413948e-01	6.32348391e-02	6.91791092e-02	1.18885401e-01	4.23221053e-01	-3.04335652e-01	3.63778353e-01	-2.97213502e-03	3.31034871e-03	2.57482257e-17	3.31034871e-03	-3.31034871e-03
14              	1.49224027e-01	7.22726570e-02	7.69513697e-02	9.35742530e-02	3.76834648e-01	-2.83260395e-01	3.30047522e-01	-2.33935633e-03	3.73060067e-03	9.41539069e-17	3.73060067e-03	-3.73060067e-03
15              	1.27514996e-01	6.20042327e-02	6.55107628e-02	7.01306005e-02	4.18955183e-01	-3.48824582e-01	3.83889882e-01	-1.75326501e-03	3.18787489e-03	1.20670589e-16	3.18787489e-03	-3.18787489e-03
16              	8.49052505e-02	4.11201632e-02	4.37850874e-02	5.32984841e-02	5.36532394e-01	-4.83233910e-01	5.09883152e-01	-1.33246210e-03	2.12263126e-03	1.16574693e-16	2.12263126e-03	-2.12263126e-03
17              	3.83911698e-02	1.80191597e-02	2.03720100e-02	4.70570059e-02	6.29578638e-01	-5.82521632e-01	6.06050135e-01	-1.17642515e-03	9.59779244e-04	9.74255370e-17	9.59779244e-04	-9.59779244e-04
18              	1.43139279e-03	-4.36752768e-04	1.86814556e-03	4.60979665e-02	6.91275316e-01	-6.45177349e-01	6.68226332e-01	-1.15244916e-03	3.57848197e-05	6.29621564e-17	3.57848197e-05	-3.57848197e-05
19              	-1.53403173e-02	-8.84446859e-03	-6.49584869e-03	4.69723979e-02	7.25066136e-01	-6.78093738e-01	7.01579937e-01	-1.17430995e-03	-3.83507932e-04	1.97088609e-17	-3.83507932e-04	3.83507932e-04
20              	-1.25570052e-02	-7.37992655e-03	-5.17707866e-03	4.40569577e-02	7.28087175e-01	-6.84030217e-01	7.06058696e-01	-1.10142394e-03	-3.13925130e-04	-6.93446248e-18	-3.13925130e-04	3.13925130e-04
21              	2.44097196e-03	2.23982558e-04	2.21698940e-03	3.98601369e-02	6.96624379e-01	-6.56764242e-01	6.76694311e-01	-9.96503423e-04	6.10242990e-05	-3.58227466e-17	6.10242990e-05	-6.10242990e-05
22              	2.66908194e-02	1.25055028e-02	1.41853166e-02	3.35962767e-02	6.41649094e-01	-6.08052818e-01	6.24850956e-01	-8.39906918e-04	6.67270485e-04	-4.70760632e-17	6.67270485e-04	-6.67270485e-04
23              	4.88146909e-02	2.37324174e-02	2.50822735e-02	2.69971231e-02	6.07030963e-01	-5.80033839e-01	5.93532401e-01	-6.74928077e-04	1.22036727e-03	-5.09590204e-17	1.22036727e-03	-1.22036727e-03
24              	6.23606878e-02	3.06611527e-02	3.16995352e-02	2.07676507e-02	6.11202590e-01	-5.90434939e-01	6.00818765e-01	-5.19191267e-04	1.55901720e-03	-4.77313214e-17	1.55901720e-03	-1.55901720e-03
25              	7.04388232e-02	3.49313476e-02	3.55074756e-02	1.15225607e-02	6.33978481e-01	-6.22455920e-01	6.28217200e-01	-2.88064018e-04	1.76097058e-03	-3.93436193e-17	1.76097058e-03	-1.76097058e-03
26              	7.03202212e-02	3.51613161e-02	3.51589050e-02	-4.82217613e-05	6.61270314e-01	-6.61318536e-01	6.61294425e-01	1.20554403e-06	1.75800553e-03	-2.83971346e-17	1.75800553e-03	-1.75800553e-03
27              	6.27141565e-02	3.16415701e-02	3.10725863e-02	-1.13796758e-02	6.80967533e-01	-6.92347209e-01	6.86657371e-01	2.84491896e-04	1.56785391e-03	-1.62180725e-17	1.56785391e-03	-1.56785391e-03
28              	5.07786340e-02	2.58647443e-02	2.49138897e-02	-1.90170922e-02	6.89391481e-01	-7.08408573e-01	6.98900027e-01	4.75427306e-04	1.26946585e-03	-5.25802986e-18	1.26946585e-03	-1.26946585e-03
29              	4.07851355e-02	2.10690912e-02	1.97160443e-02	-2.70609384e-02	6.71921849e-01	-6.98982787e-01	6.85452318e-01	6.76523460e-04	1.01962839e-03	7.27095375e-19	1.01962839e-03	-1.01962839e-03
30              	3.21034032e-02	1.68874815e-02	1.52159217e-02	-3.34311950e-02	6.29771237e-01	-6.63202432e-01	6.46486835e-01	8.35779874e-04	8.02585081e-04	3.79956383e-18	8.02585081e-04	-8.02585081e-04
31              	2.73693326e-02	1.46523402e-02	1.27169924e-02	-3.87069546e-02	5.70305263e-01	-6.09012217e-01	5.89658740e-01	9.67673865e-04	6.84233315e-04	4.36521607e-18	6.84233315e-04	-6.84233315e-04
32              	2.48237627e-02	1.34518787e-02	1.13718840e-02	-4.15998946e-02	4.93423639e-01	-5.35023534e-01	5.14223586e-01	1.03999737e-03	6.20594068e-04	3.24926290e-18	6.20594068e-04	-6.20594068e-04
33              	2.48934690e-02	1.35435891e-02	1.13498799e-02	-4.38741838e-02	4.10312082e-01	-4.54186266e-01	4.32249174e-01	1.09685460e-03	6.22336725e-04	1.52773123e-18	6.22336725e-04	-6.22336725e-04
34              	2.72515089e-02	1.47659036e-02	1.24856054e-02	-4.56059642e-02	3.23420632e-01	-3.69026596e-01	3.46223614e-01	1.14014911e-03	6.81287723e-04	-2.89781161e-19	6.81287723e-04	-6.81287723e-04
35              	3.06077881e-02	1.64928456e-02	1.41149425e-02	-4.75580621e-02	2.39071019e-01	-2.86629082e-01	2.62850051e-01	1.18895155e-03	7.65194704e-04	-1.96902511e-18	7.65194704e-04	-7.65194704e-04
36              	3.39620521e-02	1.82150093e-02	1.57470428e-02	-4.93593299e-02	1.65670553e-01	-2.15029883e-01	1.90350218e-01	1.23398325e-03	8.49051304e-04	-3.12229437e-18	8.49051304e-04	-8.49051304e-04
37              	3.57516127e-02	1.92215724e-02	1.65300402e-02	-5.38306444e-02	1.00368942e-01	-1.54199586e-01	1.27284264e-01	1.34576611e-03	8.93790317e-04	-3.56467857e-18	8.93790317e-04	-8.93790317e-04
38              	3.72064621e-02	2.00915516e-02	1.71149105e-02	-5.95328230e-02	4.01464067e-02	-9.96792297e-02	6.99128182e-02	1.48832058e-03	9.30161553e-04	-3.87661301e-18	9.30161553e-04	-9.30161553e-04
39              	3.78198381e-02	2.05688018e-02	1.72510363e-02	-6.63553107e-02	-1.39658637e-02	-5.23894470e-02	1.92117916e-02	1.65888277e-03	9.45495952e-04	-4.25204217e-18	9.45495952e-04	-9.45495952e-04
40              	3.78333532e-02	2.07652174e-02	1.70681359e-02	-7.39416299e-02	-6.36414752e-02	-1.03001547e-02	-2.66706602e-02	1.84854075e-03	9.45833831e-04	-4.67740180e-18	9.45833831e-04	-9.45833831e-04
41              	3.70192637e-02	2.05917119e-02	1.64275519e-02	-8.32832000e-02	-1.15374373e-01	3.20911729e-02	-7.37327729e-02	2.08208000e-03	9.25481593e-04	-5.09862776e-18	9.25481593e-04	-9.25481593e-04
42              	3.64578008e-02	2.05731173e-02	1.58846835e-02	-9.37686768e-02	-1.70483629e-01	7.67149518e-02	-1.23599290e-01	2.34421692e-03	9.11445019e-04	-5.53284312e-18	9.11445019e-04	-9.11445019e-04
43              	3.61980298e-02	2.07135861e-02	1.54844437e-02	-1.04582849e-01	-2.26785970e-01	1.22203121e-01	-1.74494546e-01	2.61457124e-03	9.04950745e-04	-5.90254842e-18	9.04950745e-04	-9.04950745e-04
44              	3.56560734e-02	2.07639217e-02	1.48921517e-02	-1.17435400e-01	-2.86587571e-01	1.69152171e-01	-2.27869871e-01	2.93588500e-03	8.91401836e-04	-6.18100644e-18	8.91401836e-04	-8.91401836e-04
45              	3.47314508e-02	2.06612783e-02	1.40701725e-02	-1.31822116e-01	-3.46532312e-01	2.14710196e-01	-2.80621254e-01	3.29555291e-03	8.68286270e-04	-5.96743527e-18	8.68286270e-04	-8.68286270e-04
46              	3.35622181e-02	2.04214011e-02	1.31408170e-02	-1.45611682e-01	-3.97898078e-01	2.52286396e-01	-3.25092237e-01	3.64029204e-03	8.39055453e-04	-5.39580381e-18	8.39055453e-04	-8.39055453e-04
47              	3.23141932e-02	2.01159658e-02	1.21982273e-02	-1.58354769e-01	-4.37283716e-01	2.78928947e-01	-3.58106332e-01	3.95886923e-03	8.07854829e-04	-4.61816074e-18	8.07854829e-04	-8.07854829e-04
48              	3.14103010e-02	1.99808941e-02	1.14294069e-02	-1.71029744e-01	-4.65427247e-01	2.94397503e-01	-3.79912375e-01	4.27574360e-03	7.85257524e-04	-3.73083019e-18	7.85257524e-04	-7.85257524e-04
49              	3.05714423e-02	1.97692979e-02	1.08021444e-02	-1.79343069e-01	-4.81316974e-01	3.01973904e-01	-3.91645439e-01	4.48357673e-03	7.64286058e-04	-3.84492124e-18	7.64286058e-04	-7.64286058e-04
50              	3.02168201e-02	2.00014974e-02	1.02153227e-02	-1.95723493e-01	-4.93160667e-01	2.97437174e-01	-3.95298920e-01	4.89308732e-03	7.55420502e-04	-3.33371745e-18	7.55420502e-04	-7.55420502e-04
51              	2.96493115e-02	1.99722600e-02	9.67705151e-03	-2.05904170e-01	-5.00685571e-01	2.94781401e-01	-3.97733486e-01	5.14760426e-03	7.41232788e-04	-3.62717161e-18	7.41232788e-04	-7.41232788e-04
52              	2.91687554e-02	2.00285397e-02	9.14021563e-03	-2.17766482e-01	-5.00351840e-01	2.82585358e-01	-3.91468599e-01	5.44416205e-03	7.29218884e-04	-3.84579721e-18	7.29218884e-04	-7.29218884e-04
53              	2.86708234e-02	2.01114153e-02	8.55940814e-03	-2.31040142e-01	-4.90383286e-01	2.59343143e-01	-3.74863215e-01	5.77600356e-03	7.16770585e-04	-4.05876758e-18	7.16770585e-04	-7.16770585e-04
54              	2.79112876e-02	2.00770381e-02	7.83424955e-03	-2.44855771e-01	-4.69722765e-01	2.24866994e-01	-3.47294879e-01	6.12139427e-03	6.97782191e-04	-4.15664437e-18	6.97782191e-04	-6.97782191e-04
55              	2.62058210e-02	1.97124635e-02	6.49335752e-03	-2.64382120e-01	-4.28232052e-01	1.63849933e-01	-2.96040993e-01	6.60955300e-03	6.55145526e-04	-3.65545540e-18	6.55145526e-04	-6.55145526e-04
56              	2.49834981e-02	1.93758153e-02	5.60768276e-03	-2.75362652e-01	-3.91686358e-01	1.16323706e-01	-2.54005032e-01	6.88406629e-03	6.24587452e-04	-3.47412041e-18	6.24587452e-04	-6.24587452e-04
57              	2.26876165e-02	1.86179684e-02	4.06964809e-03	-2.90966406e-01	-3.29020943e-01	3.80545367e-02	-1.83537740e-01	7.27416016e-03	5.67190412e-04	-2.35526198e-18	5.67190412e-04	-5.67190412e-04
58              	2.06958818e-02	1.78883579e-02	2.80752389e-03	-3.01616681e-01	-2.59480209e-01	-4.21364712e-02	-1.08671869e-01	7.54041702e-03	5.17397045e-04	-9.19642731e-19	5.17397045e-04	-5.17397045e-04
59              	1.88919644e-02	1.71556193e-02	1.73634513e-03	-3.08385483e-01	-1.91563182e-01	-1.16822300e-01	-3.73704409e-02	7.70963706e-03	4.72299110e-04	8.58524565e-19	4.72299110e-04	-4.72299110e-04
60              	1.71641256e-02	1.63997688e-02	7.64356791e-04	-3.12708241e-01	-1.28255003e-01	-1.84453238e-01	2.80991178e-02	7.81770602e-03	4.29103141e-04	2.98013676e-18	4.29103141e-04	-4.29103141e-04
61              	1.54637700e-02	1.56152712e-02	-1.51501244e-04	-3.15335450e-01	-7.03302015e-02	-2.45005248e-01	8.73375234e-02	7.88338625e-03	3.86594250e-04	5.45497929e-18	3.86594250e-04	-3.86594250e-04
62              	1.38410632e-02	1.48268944e-02	-9.85831156e-04	-3.16254511e-01	-1.92753101e-02	-2.96979200e-01	1.38851945e-01	7.90636277e-03	3.46026580e-04	8.16487759e-18	3.46026580e-04	-3.46026580e-04
63              	1.24379345e-02	1.40919322e-02	-1.65399769e-03	-3.14918597e-01	2.31265961e-02	-3.38045193e-01	1.80585895e-01	7.87296492e-03	3.10948362e-04	1.13366986e-17	3.10948362e-04	-3.10948362e-04
64              	1.10774190e-02	1.33031379e-02	-2.22571888e-03	-3.10577136e-01	5.28329308e-02	-3.63410066e-01	2.08121499e-01	7.76442839e-03	2.76935475e-04	1.46882697e-17	2.76935475e-04	-2.76935475e-04
65              	9.92663508e-03	1.25296909e-02	-2.60305586e-03	-3.02654936e-01	6.78031518e-02	-3.70458088e-01	2.19130620e-01	7.56637340e-03	2.48165877e-04	1.84756878e-17	2.48165877e-04	-2.48165877e-04
66              	9.27419267e-03	1.19125207e-02	-2.63832801e-03	-2.91016974e-01	6.88690616e-02	-3.59886035e-01	2.14377548e-01	7.27542435e-03	2.31854817e-04	2.18864027e-17	2.31854817e-04	-2.31854817e-04
67              	8.64219569e-03	1.12195981e-02	-2.57740241e-03	-2.75940010e-01	5.89264926e-02	-3.34866503e-01	1.96896498e-01	6.89850025e-03	2.16054892e-04	2.55032204e-17	2.16054892e-04	-2.16054892e-04
68              	8.20861713e-03	1.05521808e-02	-2.34356370e-03	-2.57914891e-01	4.01941993e-02	-2.98109090e-01	1.69151645e-01	6.44787226e-03	2.05215428e-04	2.90520841e-17	2.05215428e-04	-2.05215428e-04
69              	7.97325356e-03	9.93104204e-03	-1.95778848e-03	-2.37776610e-01	1.54764974e-02	-2.53253108e-01	1.34364803e-01	5.94441526e-03	1.99331339e-04	3.22453369e-17	1.99331339e-04	-1.99331339e-04
70              	7.97037631e-03	9.40482840e-03	-1.43445209e-03	-2.16785610e-01	-1.45614274e-02	-2.02224183e-01	9.38313776e-02	5.41964025e-03	1.99259408e-04	3.49201766e-17	1.99259408e-04	-1.99259408e-04
71              	8.15477725e-03	8.97700048e-03	-8.22223231e-04	-1.95984474e-01	-4.65293641e-02	-1.49455110e-01	5.14628730e-02	4.89961185e-03	2.03869431e-04	3.71512971e-17	2.03869431e-04	-2.03869431e-04
72              	8.45052379e-03	8.62935460e-03	-1.78830809e-04	-1.76163708e-01	-7.50818160e-02	-1.01081892e-01	1.30000381e-02	4.40409270e-03	2.11263095e-04	3.90672841e-17	2.11263095e-04	-2.11263095e-04
73              	8.79019327e-03	8.34058468e-03	4.49608585e-04	-1.57819522e-01	-9.66569321e-02	-6.11625899e-02	-1.77471711e-02	3.94548805e-03	2.19754832e-04	4.06914864e-17	2.19754832e-04	-2.19754832e-04
74              	9.12135838e-03	8.08174938e-03	1.03960900e-03	-1.40842808e-01	-1.09874282e-01	-3.09685254e-02	-3.94528784e-02	3.52107019e-03	2.28033959e-04	4.20503120e-17	2.28033959e-04	-2.28033959e-04
75              	9.41962214e-03	7.84585790e-03	1.57376424e-03	-1.25441873e-01	-1.16055170e-01	-9.38670277e-03	-5.33342339e-02	3.13604683e-03	2.35490554e-04	4.32190483e-17	2.35490554e-04	-2.35490554e-04
76              	9.76359051e-03	7.66760262e-03	2.09598789e-03	-1.11432295e-01	-1.19274978e-01	7.84268346e-03	-6.35588307e-02	2.78580736e-03	2.44089763e-04	4.41914594e-17	2.44089763e-04	-2.44089763e-04
77              	1.01137546e-02	7.52122738e-03	2.59252723e-03	-9.85740030e-02	-1.20359171e-01	2.17851679e-02	-7.10721694e-02	2.46435008e-03	2.52843865e-04	4.50209515e-17	2.52843865e-04	-2.52843865e-04
78              	1.04588319e-02	7.40269644e-03	3.05613549e-03	-8.69312190e-02	-1.19931424e-01	3.30002049e-02	-7.64658144e-02	2.17328047e-03	2.61470798e-04	4.57199534e-17	2.61470798e-04	-2.61470798e-04
79              	1.07697172e-02	7.28694293e-03	3.48277432e-03	-7.60833723e-02	-1.18099096e-01	4.20157241e-02	-8.00574103e-02	1.90208431e-03	2.69242931e-04	4.63355547e-17	2.69242931e-04	-2.69242931e-04
80              	1.10369757e-02	7.15162250e-03	3.88535316e-03	-6.53253866e-02	-1.14735980e-01	4.94105936e-02	-8.20732870e-02	1.63313467e-03	2.75924392e-04	4.69017004e-17	2.75924392e-04	-2.75924392e-04
81              	1.12819866e-02	6.99409343e-03	4.28789320e-03	-5.41240044e-02	-1.09581417e-01	5.54574131e-02	-8.25194153e-02	1.35310011e-03	2.82049666e-04	4.74290622e-17	2.82049666e-04	-2.82049666e-04
82              	1.14989993e-02	6.83628555e-03	4.66271374e-03	-4.34714362e-02	-1.00578517e-01	5.71070807e-02	-7.88427988e-02	1.08678590e-03	2.87474982e-04	4.79168645e-17	2.87474982e-04	-2.87474982e-04
83              	1.16947300e-02	6.68327064e-03	5.01145935e-03	-3.34362257e-02	-8.78260481e-02	5.43898225e-02	-7.11079353e-02	8.35905641e-04	2.92368250e-04	4.83678155e-17	2.92368250e-04	-2.92368250e-04
84              	1.18774458e-02	6.53838517e-03	5.33906065e-03	-2.39864904e-02	-7.11509318e-02	4.71644414e-02	-5.91576866e-02	5.99662260e-04	2.96936145e-04	4.87723193e-17	2.96936145e-04	-2.96936145e-04
85              	1.20519521e-02	6.40491377e-03	5.64703836e-03	-1.51575081e-02	-5.10257736e-02	3.58682655e-02	-4.34470195e-02	3.78937702e-04	3.01298803e-04	4.91216371e-17	3.01298803e-04	-3.01298803e-04
86              	1.22246337e-02	6.28095060e-03	5.94368308e-03	-6.74535026e-03	-2.81836990e-02	2.14383487e-02	-2.48110239e-02	1.68633756e-04	3.05615842e-04	4.94152642e-17	3.05615842e-04	-3.05615842e-04
87              	1.23957590e-02	6.16480217e-03	6.23095683e-03	1.32309313e-03	-3.34704462e-03	4.67013775e-03	-4.00859118e-03	-3.30773281e-05	3.09893975e-04	4.96559809e-17	3.09893975e-04	-3.09893975e-04
88              	1.25612897e-02	6.05687252e-03	6.50441718e-03	8.95089336e-03	2.27152017e-02	-1.37643084e-02	1.82397550e-02	-2.23772334e-04	3.14032243e-04	4.98480303e-17	3.14032243e-04	-3.14032243e-04
89              	1.27209268e-02	5.95397352e-03	6.76695323e-03	1.62595944e-02	4.96541506e-02	-3.33945562e-02	4.15243534e-02	-4.06489859e-04	3.18023169e-04	4.99939038e-17	3.18023169e-04	-3.18023169e-04
90              	1.28706657e-02	5.85418792e-03	7.01647777e-03	2.32457970e-02	7.73009632e-02	-5.40551663e-02	6.56780647e-02	-5.81144925e-04	3.21766642e-04	5.00995224e-17	3.21766642e-04	-3.21766642e-04
91              	1.30067975e-02	5.75626245e-03	7.25053509e-03	2.98854529e-02	1.05622300e-01	-7.57368469e-02	9.06795734e-02	-7.47136322e-04	3.25169939e-04	5.01701893e-17	3.25169939e-04	-3.25169939e-04
92              	1.31292721e-02	5.65813213e-03	7.47113993e-03	3.62601561e-02	1.34762318e-01	-9.85021619e-02	1.16632240e-01	-9.06503902e-04	3.28231801e-04	5.02127746e-17	3.28231801e-04	-3.28231801e-04
93              	1.32369333e-02	5.56006339e-03	7.67686987e-03	4.23361295e-02	1.64692460e-01	-1.22356330e-01	1.43524395e-01	-1.05840324e-03	3.30923331e-04	5.02323328e-17	3.30923331e-04	-3.30923331e-04
94              	1.33326567e-02	5.45939356e-03	7.87326316e-03	4.82773921e-02	1.95673729e-01	-1.47396337e-01	1.71535033e-01	-1.20693480e-03	3.33316418e-04	5.02363223e-17	3.33316418e-04	-3.33316418e-04
95              	1.34177694e-02	5.35635038e-03	8.06141897e-03	5.41013718e-02	2.27757735e-01	-1.73656363e-01	2.00707049e-01	-1.35253430e-03	3.35444234e-04	5.02299006e-17	3.35444234e-04	-3.35444234e-04
96              	1.34924599e-02	5.25061705e-03	8.24184285e-03	5.98245160e-02	2.60996040e-01	-2.01171524e-01	2.31083782e-01	-1.49561290e-03	3.37311497e-04	5.02188799e-17	3.37311497e-04	-3.37311497e-04
97              	1.35567009e-02	5.14197053e-03	8.41473032e-03	6.54551956e-02	2.95412162e-01	-2.29956967e-01	2.62684565e-01	-1.63637989e-03	3.38917521e-04	5.02068321e-17	3.38917521e-04	-3.38917521e-04
98              	1.36102061e-02	5.02868373e-03	8.58152235e-03	7.10567723e-02	3.31209692e-01	-2.60152919e-01	2.95681306e-01	-1.77641931e-03	3.40255152e-04	5.01929252e-17	3.40255152e-04	-3.40255152e-04
99              	1.36549513e-02	4.91585181e-03	8.73909945e-03	7.64649528e-02	3.67671246e-01	-2.91206293e-01	3.29438769e-01	-1.91162382e-03	3.41373782e-04	5.01835605e-17	3.41373782e-04	-3.41373782e-04
100             	1.36916139e-02	4.80237655e-03	8.88923738e-03	8.17372166e-02	4.04852266e-01	-3.23115050e-01	3.63983658e-01	-2.04343041e-03	3.42290348e-04	5.01761252e-17	3.42290348e-04	-3.42290348e-04
