# Force and moment coefficients
# dragDir       : (1.00000000e+00 0.00000000e+00 0.00000000e+00)
# sideDir       : (0.00000000e+00 0.00000000e+00 -1.00000000e+00)
# liftDir       : (0.00000000e+00 1.00000000e+00 0.00000000e+00)
# rollAxis      : (1.00000000e+00 0.00000000e+00 0.00000000e+00)
# pitchAxis     : (0.00000000e+00 0.00000000e+00 -1.00000000e+00)
# yawAxis       : (0.00000000e+00 1.00000000e+00 0.00000000e+00)
# magUInf       : 3.00000000e+01
# lRef          : 1.00000000e+00
# Aref          : 1.00000000e+00
# CofR          : (0.00000000e+00 0.00000000e+00 0.00000000e+00)
#
# Time          	Cd              	Cd(f)           	Cd(r)           	Cl              	Cl(f)           	Cl(r)           	CmPitch         	CmRoll          	CmYaw           	Cs              	Cs(f)           	Cs(r)           
1               	-1.34506591e-01	-6.72466642e-02	-6.72599271e-02	7.83231681e-05	2.90353800e-04	-2.12030632e-04	2.51192216e-04	6.63144879e-06	1.10972003e-04	-5.24768843e-05	8.47335607e-05	-1.37210445e-04
2               	-1.26587800e+01	-6.32577169e+00	-6.33300830e+00	-1.84933047e-02	-8.42837859e-03	-1.00649261e-02	8.18273749e-04	3.61830926e-03	7.94381428e-03	1.43953587e-02	1.51414936e-02	-7.46134926e-04
3               	-1.26593191e+01	-6.32603115e+00	-6.33328791e+00	-3.16676973e-02	-1.39330180e-02	-1.77346793e-02	1.90083064e-03	3.62838133e-03	6.63387282e-03	5.30785393e-03	9.28779979e-03	-3.97994586e-03
4               	-9.92046937e+00	-4.95725399e+00	-4.96321538e+00	-3.39948351e-02	-1.56122445e-02	-1.83825907e-02	1.38517310e-03	2.98069455e-03	4.57768746e-03	-9.63641156e-04	4.09586688e-03	-5.05950804e-03
5               	-4.70990248e+00	-2.35214537e+00	-2.35775711e+00	-4.82180269e-02	-2.39926902e-02	-2.42253367e-02	1.16323218e-04	2.80587299e-03	3.54327692e-04	-9.88428175e-03	-4.58781318e-03	-5.29646857e-03
6               	2.03580309e+00	1.01554049e+00	1.02026261e+00	-2.67452492e-02	-1.60418973e-02	-1.07033520e-02	-2.66927264e-03	-2.36106093e-03	-1.99934307e-03	-3.97113147e-02	-2.18550004e-02	-1.78563143e-02
7               	6.18133014e+00	3.08172886e+00	3.09960128e+00	-2.15204901e-03	-7.20823438e-03	5.05618536e-03	-6.13220987e-03	-8.93621146e-03	-7.26437355e-04	-4.50422084e-02	-2.32475415e-02	-2.17946668e-02
8               	7.17158063e+00	3.57263345e+00	3.59894718e+00	1.66456058e-03	-8.65181901e-03	1.03163796e-02	-9.48409930e-03	-1.31568647e-02	-1.51198309e-03	-4.93840411e-02	-2.62040036e-02	-2.31800375e-02
9               	6.26284378e+00	3.11892433e+00	3.14391945e+00	4.18970062e-03	1.40699141e-04	4.04900148e-03	-1.95415117e-03	-1.24975601e-02	-2.10026275e-03	-4.79240596e-02	-2.60622925e-02	-2.18617670e-02
10              	4.40065226e+00	2.19137017e+00	2.20928209e+00	4.06508828e-02	1.31958088e-02	2.74550740e-02	-7.12963262e-03	-8.95596035e-03	-4.23319080e-03	-4.23016035e-02	-2.53839925e-02	-1.69176109e-02
11              	1.39518769e+00	6.92128842e-01	7.03058848e-01	6.50775230e-02	1.85366176e-02	4.65409054e-02	-1.40021439e-02	-5.46500331e-03	-1.20165947e-02	-6.20750682e-02	-4.30541288e-02	-1.90209394e-02
12              	-9.03789623e-01	-4.55743412e-01	-4.48046211e-01	9.33564178e-02	2.35884998e-02	6.97679180e-02	-2.30897091e-02	-3.84860036e-03	-1.63016830e-02	-6.49710388e-02	-4.87872024e-02	-1.61838364e-02
13              	-2.07405715e+00	-1.03786743e+00	-1.03618972e+00	1.25263939e-01	2.53803613e-02	9.98835781e-02	-3.72516084e-02	-8.38852762e-04	-1.46816197e-02	-6.44336580e-02	-4.68984487e-02	-1.75352093e-02
14              	-2.31778281e+00	-1.15947669e+00	-1.15830611e+00	1.80714350e-01	3.73711188e-02	1.43343232e-01	-5.29860564e-02	-5.85290310e-04	-1.01096204e-02	-5.86991475e-02	-3.94591941e-02	-1.92399534e-02
15              	-1.95827996e+00	-9.81811006e-01	-9.76468958e-01	2.31383505e-01	5.71618251e-02	1.74221680e-01	-5.85299275e-02	-2.67102415e-03	-4.61448693e-03	-5.92602961e-02	-3.42446350e-02	-2.50156611e-02
16              	-1.15064016e+00	-5.81904083e-01	-5.68736073e-01	3.05813839e-01	9.51738451e-02	2.10639994e-01	-5.77330746e-02	-6.58400534e-03	2.83105302e-05	-5.24210144e-02	-2.61821967e-02	-2.62388177e-02
17              	-3.86333803e-01	-2.03258559e-01	-1.83075244e-01	3.39736841e-01	1.21550640e-01	2.18186201e-01	-4.83177806e-02	-1.00916578e-02	1.65829338e-03	-4.03095090e-02	-1.84964611e-02	-2.18130479e-02
18              	1.60109191e-01	6.86257473e-02	9.14834440e-02	3.06182073e-01	1.21317439e-01	1.84864634e-01	-3.17735974e-02	-1.14288483e-02	1.61284050e-03	-2.91461546e-02	-1.29602368e-02	-1.61859178e-02
19              	4.46132068e-01	2.12613795e-01	2.33518272e-01	1.90514840e-01	8.51668273e-02	1.05348012e-01	-1.00905926e-02	-1.04522385e-02	1.11375682e-03	-2.28198920e-02	-1.02961892e-02	-1.25237028e-02
20              	5.63622227e-01	2.74024947e-01	2.89597280e-01	3.11025535e-02	2.64479222e-02	4.65463129e-03	1.08966455e-02	-7.78616647e-03	6.36862601e-04	-1.88085589e-02	-8.76741683e-03	-1.00411420e-02
21              	6.07207508e-01	2.98963438e-01	3.08244071e-01	-1.40346224e-01	-3.59534188e-02	-1.04392805e-01	3.42196932e-02	-4.64031671e-03	4.78971413e-04	-1.63676292e-02	-7.70484317e-03	-8.66278599e-03
22              	5.89250446e-01	2.93220451e-01	2.96029995e-01	-2.52893282e-01	-7.48123415e-02	-1.78080941e-01	5.16342996e-02	-1.40477166e-03	2.82153518e-04	-1.59024285e-02	-7.66906075e-03	-8.23336779e-03
23              	5.20476111e-01	2.61472990e-01	2.59003122e-01	-2.57223479e-01	-6.75299318e-02	-1.89693548e-01	6.10818079e-02	1.23493405e-03	-1.89661421e-05	-1.63015959e-02	-8.16976410e-03	-8.13183182e-03
24              	4.26889325e-01	2.17267904e-01	2.09621420e-01	-2.13664778e-01	-4.43456062e-02	-1.69319172e-01	6.24867830e-02	3.82324186e-03	-7.55970428e-04	-1.71114092e-02	-9.31167503e-03	-7.79973418e-03
25              	3.52178637e-01	1.82385232e-01	1.69793405e-01	-1.76277807e-01	-3.03245412e-02	-1.45953266e-01	5.78143625e-02	6.29591377e-03	-1.05022449e-03	-1.63769018e-02	-9.23867541e-03	-7.13822644e-03
26              	2.95504638e-01	1.56129270e-01	1.39375368e-01	-1.25324809e-01	-1.35058702e-02	-1.11818939e-01	4.91565343e-02	8.37695092e-03	-1.16432666e-03	-1.55194355e-02	-8.92404440e-03	-6.59539109e-03
27              	3.06838418e-01	1.64078320e-01	1.42760098e-01	-1.65816265e-03	4.12934697e-02	-4.29516323e-02	4.21225510e-02	1.06591113e-02	-8.79958520e-04	-1.54347675e-02	-8.59734229e-03	-6.83742525e-03
28              	4.92041562e-01	2.62730035e-01	2.29311527e-01	7.84323161e-01	-2.79587178e-01	1.06391034e+00	-6.71748758e-01	1.67092536e-02	1.46841688e-02	4.65034963e-03	1.70093437e-02	-1.23589940e-02
29              	1.25374071e+00	6.44471854e-01	6.09268858e-01	7.70155463e-01	-3.21831896e-01	1.09198736e+00	-7.06909627e-01	1.76014979e-02	4.17683450e-02	3.84668054e-02	6.10017477e-02	-2.25349422e-02
30              	3.44203280e+00	1.73329258e+00	1.70874022e+00	2.77788417e-02	-5.30943285e-02	8.08731701e-02	-6.69837493e-02	1.22761818e-02	4.30166597e-02	4.52457821e-02	6.56395507e-02	-2.03937686e-02
31              	6.99052910e+00	3.49784668e+00	3.49268242e+00	-1.17665482e+00	4.25576005e-01	-1.60223082e+00	1.01390341e+00	2.58213115e-03	2.35116450e-02	3.51487335e-02	4.10860117e-02	-5.93727825e-03
32              	9.53515865e+00	4.76690572e+00	4.76825293e+00	-1.25021060e+00	4.75773162e-01	-1.72598377e+00	1.10087846e+00	-6.73608766e-04	-1.33393812e-02	4.98165258e-03	-1.08485550e-02	1.58302075e-02
33              	4.83383797e+00	2.50365856e+00	2.33017942e+00	3.00695837e+01	-1.21102618e+01	4.21798454e+01	-2.71450536e+01	8.67395699e-02	-6.76896919e-02	-5.01778041e-02	-9.27785940e-02	4.26007898e-02
34              	-1.69104159e+01	-8.02295314e+00	-8.88746280e+00	1.01535861e+02	-3.97659581e+01	1.41301819e+02	-9.05338885e+01	4.32254829e-01	-4.80936979e-01	-5.76873472e-01	-7.69373715e-01	1.92500243e-01
35              	-4.48433167e+01	-2.14433317e+01	-2.33999850e+01	1.78654130e+02	-6.67531116e+01	2.45407242e+02	-1.56080177e+02	9.78326641e-01	-1.02362323e+00	-1.25091427e+00	-1.64908037e+00	3.98166100e-01
36              	-6.66299756e+01	-3.20850199e+01	-3.45449557e+01	2.22877581e+02	-8.04084440e+01	3.03286025e+02	-1.91847235e+02	1.22996790e+00	-1.18867594e+00	-1.49521495e+00	-1.93628341e+00	4.41068463e-01
37              	-8.37080151e+01	-4.05651254e+01	-4.31428897e+01	2.26428906e+02	-7.90999553e+01	3.05528861e+02	-1.92314408e+02	1.28888213e+00	-1.18591528e+00	-1.53894666e+00	-1.95538861e+00	4.16441954e-01
38              	-9.69967238e+01	-4.73573845e+01	-4.96393392e+01	1.95177783e+02	-6.58151701e+01	2.60992954e+02	-1.63404062e+02	1.14097736e+00	-1.11575186e+00	-1.49525265e+00	-1.86337819e+00	3.68125534e-01
39              	-1.05095383e+02	-5.16381645e+01	-5.34572181e+01	1.47297718e+02	-4.75927693e+01	1.94890487e+02	-1.21241628e+02	9.09526781e-01	-1.01940118e+00	-1.40435653e+00	-1.72157945e+00	3.17222922e-01
40              	-1.09153305e+02	-5.39004662e+01	-5.52528389e+01	9.96589862e+01	-3.03325212e+01	1.29991507e+02	-8.01620143e+01	6.76186335e-01	-9.09089031e-01	-1.29239525e+00	-1.55528666e+00	2.62891406e-01
41              	-1.09244302e+02	-5.41872680e+01	-5.50570344e+01	5.45256691e+01	-1.50117850e+01	6.95374541e+01	-4.22746196e+01	4.34883187e-01	-7.64030996e-01	-1.12422339e+00	-1.32614269e+00	2.01919301e-01
42              	-1.07808115e+02	-5.36829611e+01	-5.41251536e+01	1.75051013e+01	-3.31715804e+00	2.08222594e+01	-1.20697087e+01	2.21096273e-01	-6.39910951e-01	-9.76261859e-01	-1.12804188e+00	1.51780021e-01
43              	-1.06555370e+02	-5.32400223e+01	-5.33153475e+01	-7.69371801e+00	4.01271138e+00	-1.17064294e+01	7.85957038e+00	3.76626054e-02	-5.46714150e-01	-8.63471465e-01	-9.78449883e-01	1.14978418e-01
44              	-1.06203481e+02	-5.31902751e+01	-5.30132054e+01	-2.08610053e+01	7.69505696e+00	-2.85560623e+01	1.81255596e+01	-8.85348529e-02	-4.88011123e-01	-7.94556748e-01	-8.85289497e-01	9.07327487e-02
45              	-1.07205686e+02	-5.37623000e+01	-5.34433861e+01	-2.48524163e+01	8.24619993e+00	-3.30986162e+01	2.06724081e+01	-1.59456938e-01	-4.17030762e-01	-7.15891119e-01	-7.74976321e-01	5.90852026e-02
46              	-1.07794927e+02	-5.40803958e+01	-5.37145312e+01	-2.26814513e+01	6.84069697e+00	-2.95221482e+01	1.81814226e+01	-1.82932299e-01	-3.26746112e-01	-6.37720077e-01	-6.45606151e-01	7.88607402e-03
47              	-1.08529467e+02	-5.44399691e+01	-5.40894984e+01	-1.61690483e+01	4.26113521e+00	-2.04301835e+01	1.23456593e+01	-1.75235310e-01	-2.31337589e-01	-5.50518977e-01	-5.06597077e-01	-4.39219000e-02
48              	-1.09359401e+02	-5.48307196e+01	-5.45286813e+01	-7.54097979e+00	1.04731504e+00	-8.58829483e+00	4.81780493e+00	-1.51019161e-01	-1.11070484e-01	-4.45480211e-01	-3.33810589e-01	-1.11669621e-01
49              	-1.09449532e+02	-5.48299377e+01	-5.46195946e+01	1.15881938e+00	-1.53404361e+00	2.69286299e+00	-2.11345330e+00	-1.05171573e-01	-2.13392117e-02	-3.71924264e-01	-2.07301343e-01	-1.64622920e-01
50              	-1.08504548e+02	-5.42790536e+01	-5.42254945e+01	7.75203384e+00	-2.93536610e+00	1.06873999e+01	-6.81138303e+00	-2.67795476e-02	6.04013117e-02	-3.11695558e-01	-9.54464675e-02	-2.16249091e-01
51              	-1.05624997e+02	-5.27649523e+01	-5.28600443e+01	1.20468355e+01	-3.25317689e+00	1.53000124e+01	-9.27659463e+00	4.75459762e-02	1.35539069e-01	-2.60568333e-01	5.25490268e-03	-2.65823236e-01
52              	-1.00132054e+02	-4.99566497e+01	-5.01754045e+01	1.42471462e+01	-2.84874110e+00	1.70958873e+01	-9.97231421e+00	1.09377412e-01	2.03110678e-01	-2.09759710e-01	9.82308229e-02	-3.07990533e-01
53              	-9.16545626e+01	-4.56740586e+01	-4.59805039e+01	1.54206256e+01	-2.21547413e+00	1.76360998e+01	-9.92578694e+00	1.53222664e-01	2.46055206e-01	-1.72090624e-01	1.60009895e-01	-3.32100518e-01
54              	-8.09391925e+01	-4.02837522e+01	-4.06554403e+01	1.47760265e+01	-1.64182369e+00	1.64178502e+01	-9.02983693e+00	1.85844087e-01	2.73942927e-01	-1.35503374e-01	2.06191239e-01	-3.41694614e-01
55              	-6.92517249e+01	-3.44372008e+01	-3.48145240e+01	1.23898685e+01	-1.31260724e+00	1.37024757e+01	-7.50754147e+00	1.88661590e-01	2.99603313e-01	-8.06417247e-02	2.59282450e-01	-3.39924175e-01
56              	-5.75710209e+01	-2.86235833e+01	-2.89474376e+01	8.72470440e+00	-1.16501785e+00	9.88972224e+00	-5.52737005e+00	1.61927168e-01	3.07516165e-01	-1.36122161e-02	3.00710057e-01	-3.14322273e-01
57              	-4.64955003e+01	-2.31245224e+01	-2.33709779e+01	4.64044674e+00	-1.04257067e+00	5.68301740e+00	-3.36279404e+00	1.23227748e-01	2.95720315e-01	4.60301060e-02	3.18735368e-01	-2.72705262e-01
58              	-3.67125149e+01	-1.82717771e+01	-1.84407378e+01	8.25648492e-01	-9.20522305e-01	1.74617080e+00	-1.33334655e+00	8.44803788e-02	2.64074397e-01	4.78678981e-02	2.88008346e-01	-2.40140448e-01
59              	-2.86985880e+01	-1.42966716e+01	-1.44019163e+01	-1.97295893e+00	-7.34633949e-01	-1.23832498e+00	2.51845517e-01	5.26223520e-02	2.24874391e-01	2.68102873e-02	2.38279535e-01	-2.11469247e-01
60              	-2.27985418e+01	-1.13659844e+01	-1.14325573e+01	-3.50010153e+00	-4.88937857e-01	-3.01116367e+00	1.26111291e+00	3.32864446e-02	1.88155094e-01	4.84019326e-03	1.90575190e-01	-1.85734997e-01
61              	-1.83477269e+01	-9.15435010e+00	-9.19337677e+00	-3.97839450e+00	-3.69208526e-01	-3.60918598e+00	1.61998873e+00	1.95133334e-02	1.59814137e-01	-9.22122661e-04	1.59353076e-01	-1.60275198e-01
62              	-1.46396208e+01	-7.30960525e+00	-7.33001554e+00	-3.42226581e+00	-4.08019934e-01	-3.01424587e+00	1.30311297e+00	1.02051433e-02	1.35021904e-01	-5.67924687e-04	1.34737942e-01	-1.35305866e-01
63              	-1.11500625e+01	-5.56786886e+00	-5.58219363e+00	-2.13783910e+00	-6.47615379e-01	-1.49022372e+00	4.21304169e-01	7.16238544e-03	1.12250192e-01	-1.60680072e-03	1.11446792e-01	-1.13053593e-01
64              	-7.73548694e+00	-3.86046430e+00	-3.87502264e+00	-5.16166581e-01	-9.31386741e-01	4.15220160e-01	-6.73303451e-01	7.27917299e-03	9.35265583e-02	9.19078877e-05	9.35725122e-02	-9.34806043e-02
65              	-4.50608946e+00	-2.24500989e+00	-2.26107958e+00	1.00499005e+00	-1.13637349e+00	2.14136355e+00	-1.63886852e+00	8.03484568e-03	7.60213036e-02	-2.04472116e-03	7.49989430e-02	-7.70436642e-02
66              	-1.66916125e+00	-8.26509706e-01	-8.42651542e-01	2.06021916e+00	-1.18146950e+00	3.24168865e+00	-2.21157908e+00	8.07091773e-03	6.02427553e-02	-6.65134368e-03	5.69170834e-02	-6.35684271e-02
67              	6.20426903e-01	3.18463458e-01	3.01963445e-01	2.64371994e+00	-1.07937932e+00	3.72309926e+00	-2.40123929e+00	8.25000644e-03	4.48463598e-02	-1.36768569e-02	3.80079314e-02	-5.16847883e-02
68              	2.41012228e+00	1.21239805e+00	1.19772423e+00	2.82747898e+00	-8.55064459e-01	3.68254344e+00	-2.26880395e+00	7.33690805e-03	2.41424142e-02	-2.82623739e-02	1.00112273e-02	-3.82736012e-02
69              	3.86125961e+00	1.93387558e+00	1.92738403e+00	2.61732278e+00	-5.32467134e-01	3.14978992e+00	-1.84112853e+00	3.24577308e-03	1.28642129e-02	-3.37721049e-02	-4.02183950e-03	-2.97502653e-02
70              	5.10147120e+00	2.54780028e+00	2.55367092e+00	2.18014788e+00	-1.87044959e-01	2.36719284e+00	-1.27711890e+00	-2.93531676e-03	-1.19873948e-03	-4.19071310e-02	-2.21523050e-02	-1.97548260e-02
71              	6.21883662e+00	3.10143854e+00	3.11739808e+00	1.73365272e+00	1.13255321e-01	1.62039740e+00	-7.53571041e-01	-7.97976735e-03	-8.34028360e-03	-4.27516110e-02	-2.97160891e-02	-1.30355219e-02
72              	7.15525285e+00	3.56838371e+00	3.58686914e+00	1.48427711e+00	3.44542178e-01	1.13973493e+00	-3.97596379e-01	-9.24271768e-03	-1.49669585e-02	-4.41620398e-02	-3.70479784e-02	-7.11406136e-03
73              	7.85886695e+00	3.92261266e+00	3.93625429e+00	1.47115445e+00	4.80214132e-01	9.90940315e-01	-2.55363092e-01	-6.82081327e-03	-1.98655988e-02	-4.45979350e-02	-4.21645663e-02	-2.43336875e-03
74              	8.33457056e+00	4.16401488e+00	4.17055568e+00	1.75412214e+00	4.62031838e-01	1.29209030e+00	-4.15029234e-01	-3.27039731e-03	-2.18115888e-02	-4.36897854e-02	-4.36564815e-02	-3.33039267e-05
75              	8.59889749e+00	4.29912109e+00	4.29977640e+00	2.27320837e+00	3.10714688e-01	1.96249368e+00	-8.25889498e-01	-3.27653743e-04	-2.38174463e-02	-4.41307397e-02	-4.58828161e-02	1.75207641e-03
76              	8.66248146e+00	4.33333935e+00	4.32914211e+00	2.82754241e+00	9.83305356e-02	2.72921187e+00	-1.31544067e+00	2.09862109e-03	-2.38028623e-02	-4.25320918e-02	-4.50689082e-02	2.53681635e-03
77              	8.52988812e+00	4.26914443e+00	4.26074368e+00	3.17093506e+00	-1.05915130e-01	3.27685019e+00	-1.69138266e+00	4.20037474e-03	-2.20633976e-02	-3.90450057e-02	-4.15859004e-02	2.54089469e-03
78              	8.20022807e+00	4.10610144e+00	4.09412664e+00	3.22373241e+00	-2.83429282e-01	3.50716169e+00	-1.89529549e+00	5.98740104e-03	-1.83690710e-02	-3.26717585e-02	-3.47049503e-02	2.03319176e-03
79              	7.70675599e+00	3.86035124e+00	3.84640475e+00	3.01408375e+00	-4.30280216e-01	3.44436397e+00	-1.93732209e+00	6.97324658e-03	-1.48992034e-02	-2.60335459e-02	-2.79159763e-02	1.88243044e-03
80              	7.09918892e+00	3.55611286e+00	3.54307606e+00	2.57840079e+00	-5.30807927e-01	3.10920871e+00	-1.82000832e+00	6.51840313e-03	-1.33602062e-02	-2.20949718e-02	-2.44076922e-02	2.31272032e-03
81              	6.44001013e+00	3.22452301e+00	3.21548712e+00	1.97751297e+00	-5.65324844e-01	2.54283781e+00	-1.55408133e+00	4.51794794e-03	-1.09534686e-02	-1.74733684e-02	-1.96901528e-02	2.21678440e-03
82              	5.74986289e+00	2.87577031e+00	2.87409258e+00	1.29675962e+00	-5.29997802e-01	1.82675743e+00	-1.17837761e+00	8.38869319e-04	-6.38213939e-03	-1.12188664e-02	-1.19915726e-02	7.72706193e-04
83              	5.04906282e+00	2.52064256e+00	2.52842026e+00	6.51803171e-01	-4.56208947e-01	1.10801212e+00	-7.82110533e-01	-3.88885051e-03	3.44243188e-04	-3.48941218e-03	-1.40046290e-03	-2.08894928e-03
84              	4.36018754e+00	2.17096667e+00	2.18922087e+00	1.56949729e-01	-3.74855363e-01	5.31805091e-01	-4.53330227e-01	-9.12709855e-03	2.92258677e-03	-1.14716883e-04	2.86522833e-03	-2.97994521e-03
85              	3.72167618e+00	1.84643690e+00	1.87523928e+00	-1.57615014e-01	-3.04045853e-01	1.46430839e-01	-2.25238346e-01	-1.44011942e-02	4.55801709e-03	2.20305237e-03	5.65954327e-03	-3.45649090e-03
86              	3.13207301e+00	1.54739290e+00	1.58468011e+00	-3.65932133e-01	-2.23110452e-01	-1.42821681e-01	-4.01443859e-02	-1.86436013e-02	3.47430802e-03	1.36203505e-03	4.15532555e-03	-2.79329050e-03
87              	2.60338802e+00	1.28042240e+00	1.32296563e+00	-4.87770803e-01	-1.36472096e-01	-3.51298707e-01	1.07413306e-01	-2.12716142e-02	2.04222758e-03	5.73732837e-04	2.32909400e-03	-1.75536117e-03
88              	2.13048899e+00	1.04320906e+00	1.08727993e+00	-5.37702852e-01	-5.45134806e-02	-4.83189372e-01	2.14337946e-01	-2.20354332e-02	-1.76703644e-04	-9.34001707e-04	-6.43704498e-04	-2.90297209e-04
89              	1.71215364e+00	8.35133461e-01	8.77020175e-01	-5.18645135e-01	1.09386953e-02	-5.29583830e-01	2.70261263e-01	-2.09433569e-02	-2.81999691e-03	-2.89505952e-03	-4.26752667e-03	1.37246715e-03
90              	1.34379430e+00	6.53381754e-01	6.90412549e-01	-4.46843865e-01	4.98240656e-02	-4.96667931e-01	2.73245998e-01	-1.85153976e-02	-5.37635458e-03	-4.93033088e-03	-7.84152002e-03	2.91118914e-03
91              	1.02518684e+00	4.97086216e-01	5.28100625e-01	-3.54904145e-01	6.19071699e-02	-4.16811315e-01	2.39359242e-01	-1.55072047e-02	-7.78231286e-03	-6.78388864e-03	-1.11742572e-02	4.39036854e-03
92              	7.49453099e-01	3.62115246e-01	3.87337853e-01	-2.88728547e-01	5.99106884e-02	-3.48639236e-01	2.04274962e-01	-1.26113035e-02	-9.63658384e-03	-7.90096155e-03	-1.35870646e-02	5.68610306e-03
93              	5.09755486e-01	2.44626155e-01	2.65129330e-01	-2.73303633e-01	5.53641148e-02	-3.28667748e-01	1.92015931e-01	-1.02515876e-02	-1.06171294e-02	-8.01128547e-03	-1.46227722e-02	6.61148669e-03
94              	2.95248124e-01	1.39254446e-01	1.55993678e-01	-3.00562288e-01	5.09300054e-02	-3.51492293e-01	2.01211149e-01	-8.36961603e-03	-1.11516670e-02	-7.82363239e-03	-1.50634832e-02	7.23985078e-03
95              	9.22665815e-02	3.92351811e-02	5.30314004e-02	-3.54327095e-01	4.83609382e-02	-4.02688033e-01	2.25524486e-01	-6.89810960e-03	-1.11193422e-02	-7.20697705e-03	-1.47228308e-02	7.51585372e-03
96              	-1.11247014e-01	-6.14041971e-02	-4.98428169e-02	-4.14398195e-01	4.98797980e-02	-4.64277993e-01	2.57078895e-01	-5.78069011e-03	-1.09682022e-02	-6.69375237e-03	-1.43150784e-02	7.62132600e-03
97              	-3.19646116e-01	-1.64775256e-01	-1.54870860e-01	-4.70093845e-01	5.54664719e-02	-5.25560317e-01	2.90513395e-01	-4.95219757e-03	-1.05241067e-02	-5.97199108e-03	-1.35101022e-02	7.53811111e-03
98              	-5.30032936e-01	-2.69420897e-01	-2.60612039e-01	-5.24667769e-01	6.42303391e-02	-5.88898108e-01	3.26564224e-01	-4.40442901e-03	-9.89085606e-03	-5.21040234e-03	-1.24960572e-02	7.28565489e-03
99              	-7.30840472e-01	-3.69490630e-01	-3.61349842e-01	-5.78773367e-01	7.42738674e-02	-6.53047234e-01	3.63660551e-01	-4.07039420e-03	-9.04536925e-03	-4.30977063e-03	-1.12002546e-02	6.89048393e-03
100             	-9.07387463e-01	-4.57527689e-01	-4.49859774e-01	-6.36183379e-01	8.47653189e-02	-7.20948698e-01	4.02857009e-01	-3.83395756e-03	-8.16325657e-03	-3.45247661e-03	-9.88949488e-03	6.43701827e-03
101             	-1.04551382e+00	-5.26328631e-01	-5.19185192e-01	-7.05246320e-01	9.54928681e-02	-8.00739188e-01	4.48116028e-01	-3.57171922e-03	-7.35670653e-03	-2.67741669e-03	-8.69541488e-03	6.01799819e-03
102             	-1.14408908e+00	-5.75212081e-01	-5.68876994e-01	-7.98092606e-01	1.05425988e-01	-9.03518594e-01	5.04472291e-01	-3.16754363e-03	-6.74732865e-03	-2.10150529e-03	-7.79808129e-03	5.69657600e-03
103             	-1.20580186e+00	-6.05552989e-01	-6.00248870e-01	-9.16367137e-01	1.12147643e-01	-1.02851478e+00	5.70331212e-01	-2.65205959e-03	-6.33965332e-03	-1.91177012e-03	-7.29553838e-03	5.38376826e-03
104             	-1.23298951e+00	-6.18527982e-01	-6.14461532e-01	-1.05149655e+00	1.14494992e-01	-1.16599155e+00	6.40243269e-01	-2.03322470e-03	-6.10058139e-03	-2.01366831e-03	-7.10741554e-03	5.09374723e-03
105             	-1.22946365e+00	-6.16049550e-01	-6.13414098e-01	-1.19737527e+00	1.12885254e-01	-1.31026053e+00	7.11572891e-01	-1.31772594e-03	-5.93306278e-03	-2.29411314e-03	-7.08011934e-03	4.78600621e-03
106             	-1.20207141e+00	-6.01618738e-01	-6.00452677e-01	-1.34184974e+00	1.06608759e-01	-1.44845850e+00	7.77533631e-01	-5.83030688e-04	-5.78565167e-03	-2.66924725e-03	-7.12027529e-03	4.45102805e-03
107             	-1.15630734e+00	-5.78076685e-01	-5.78230654e-01	-1.47199521e+00	9.69894312e-02	-1.56898464e+00	8.32987036e-01	7.69843884e-05	-5.27035650e-03	-2.67921870e-03	-6.60996585e-03	3.93074715e-03
108             	-1.09716404e+00	-5.47972342e-01	-5.49191696e-01	-1.57715452e+00	8.62315566e-02	-1.66338608e+00	8.74808818e-01	6.09677122e-04	-5.06493649e-03	-3.00415104e-03	-6.56701201e-03	3.56286097e-03
109             	-1.02823833e+00	-5.13120294e-01	-5.15118038e-01	-1.65232672e+00	7.81534844e-02	-1.73048020e+00	9.04316844e-01	9.98871794e-04	-4.82783544e-03	-3.27387658e-03	-6.46477373e-03	3.19089714e-03
110             	-9.54824986e-01	-4.76169542e-01	-4.78655444e-01	-1.69503135e+00	7.50891324e-02	-1.77012048e+00	9.22604808e-01	1.24295081e-03	-4.61307039e-03	-3.53332774e-03	-6.37973426e-03	2.84640652e-03
111             	-8.81994331e-01	-4.39628835e-01	-4.42365496e-01	-1.71115882e+00	7.86469278e-02	-1.78980575e+00	9.34226337e-01	1.36833072e-03	-4.17243928e-03	-3.48703883e-03	-5.91595870e-03	2.42891987e-03
112             	-8.13526747e-01	-4.05347340e-01	-4.08179407e-01	-1.71587278e+00	8.92161201e-02	-1.80508890e+00	9.47152512e-01	1.41603356e-03	-3.85222498e-03	-3.40413556e-03	-5.55429276e-03	2.15015720e-03
113             	-7.51361482e-01	-3.74245790e-01	-3.77115692e-01	-1.72887888e+00	1.05431368e-01	-1.83431025e+00	9.69870810e-01	1.43495108e-03	-3.48938750e-03	-3.27864175e-03	-5.12870837e-03	1.85006663e-03
114             	-6.96156302e-01	-3.46656343e-01	-3.49499959e-01	-1.77398332e+00	1.25025164e-01	-1.89900848e+00	1.01201682e+00	1.42180830e-03	-3.16605194e-03	-3.09403772e-03	-4.71307080e-03	1.61903308e-03
115             	-6.47434355e-01	-3.22323794e-01	-3.25110561e-01	-1.87381029e+00	1.45085563e-01	-2.01889585e+00	1.08199071e+00	1.39338380e-03	-2.86723123e-03	-2.90433517e-03	-4.31939881e-03	1.41506364e-03
116             	-6.04262425e-01	-3.00766055e-01	-3.03496370e-01	-2.04815593e+00	1.61648733e-01	-2.20980466e+00	1.18572670e+00	1.36515764e-03	-2.56722345e-03	-2.67345957e-03	-3.90395324e-03	1.23049366e-03
117             	-5.66380407e-01	-2.81857583e-01	-2.84522824e-01	-2.31314151e+00	1.70707304e-01	-2.48384881e+00	1.32727806e+00	1.33262026e-03	-2.30810884e-03	-2.40875026e-03	-3.51248397e-03	1.10373371e-03
118             	-5.34281711e-01	-2.65851447e-01	-2.68430264e-01	-2.66367865e+00	1.70100781e-01	-2.83377943e+00	1.50194011e+00	1.28940847e-03	-2.06681567e-03	-2.18549369e-03	-3.15956252e-03	9.74068829e-04
119             	-5.08248879e-01	-2.52894621e-01	-2.55354258e-01	-3.06813834e+00	1.60969470e-01	-3.22910781e+00	1.69503864e+00	1.22981855e-03	-1.84477335e-03	-1.98603482e-03	-2.83779076e-03	8.51755947e-04
120             	-4.87804608e-01	-2.42757504e-01	-2.45047104e-01	-3.47940738e+00	1.47650192e-01	-3.62705757e+00	1.88735388e+00	1.14480041e-03	-1.63813182e-03	-1.73480519e-03	-2.50553442e-03	7.70729228e-04
121             	-4.71188271e-01	-2.34557415e-01	-2.36630856e-01	-3.85125197e+00	1.34323925e-01	-3.98557590e+00	2.05994991e+00	1.03672082e-03	-1.46784244e-03	-1.62793361e-03	-2.28180925e-03	6.53875637e-04
122             	-4.56823120e-01	-2.27504330e-01	-2.29318790e-01	-4.15376308e+00	1.24884608e-01	-4.27864769e+00	2.20176615e+00	9.07230183e-04	-1.28015869e-03	-1.33787449e-03	-1.94909593e-03	6.11221444e-04
123             	-4.42745221e-01	-2.20596976e-01	-2.22148245e-01	-4.36810683e+00	1.22112539e-01	-4.49021937e+00	2.30616595e+00	7.75634297e-04	-1.08119661e-03	-1.10422254e-03	-1.63330788e-03	5.29085336e-04
124             	-4.29362331e-01	-2.14019036e-01	-2.15343295e-01	-4.48898129e+00	1.27046765e-01	-4.61602806e+00	2.37153741e+00	6.62129654e-04	-8.79398537e-04	-7.71719932e-04	-1.26525850e-03	4.93538571e-04
125             	-4.04472084e-01	-2.01657833e-01	-2.02814251e-01	-4.51729658e+00	1.40995568e-01	-4.65829214e+00	2.39964386e+00	5.78209177e-04	-6.37437995e-04	-4.50966221e-04	-8.62921106e-04	4.11954884e-04
126             	-3.35178167e-01	-1.67340492e-01	-1.67837675e-01	-4.43970001e+00	1.75147798e-01	-4.61484780e+00	2.39499780e+00	2.48591133e-04	-8.49602928e-05	1.45098743e-04	-1.24109215e-05	1.57509664e-04
127             	-2.73860772e-01	-1.36792082e-01	-1.37068689e-01	-4.33041064e+00	1.99865937e-01	-4.53027657e+00	2.36507125e+00	1.38303553e-04	2.73743814e-04	4.22393309e-04	4.84940468e-04	-6.25471595e-05
128             	-2.54057443e-01	-1.26781167e-01	-1.27276276e-01	-4.21747849e+00	2.09843726e-01	-4.42732221e+00	2.31858297e+00	2.47554848e-04	3.96977653e-04	4.85831901e-04	6.39893603e-04	-1.54061703e-04
129             	-2.60275136e-01	-1.29733702e-01	-1.30541434e-01	-4.10391121e+00	2.09628276e-01	-4.31353949e+00	2.26158388e+00	4.03865995e-04	4.40999834e-04	5.26582807e-04	7.04291237e-04	-1.77708430e-04
130             	-2.80787359e-01	-1.39802702e-01	-1.40984657e-01	-4.00487926e+00	1.99241004e-01	-4.20412027e+00	2.20168064e+00	5.90977261e-04	3.97469658e-04	4.64973966e-04	6.29956641e-04	-1.64982675e-04
131             	-3.03375834e-01	-1.50967741e-01	-1.52408093e-01	-3.93040398e+00	1.80525902e-01	-4.11092989e+00	2.14572789e+00	7.20176208e-04	2.83297446e-04	3.45728013e-04	4.56161453e-04	-1.10433440e-04
132             	-3.21955429e-01	-1.60254713e-01	-1.61700716e-01	-3.89075992e+00	1.54862369e-01	-4.04562229e+00	2.10024233e+00	7.23001493e-04	1.80050570e-04	2.32706663e-04	2.96403902e-04	-6.36972388e-05
133             	-3.31272368e-01	-1.64993309e-01	-1.66279059e-01	-3.89079141e+00	1.24001193e-01	-4.01479260e+00	2.06939690e+00	6.42875143e-04	6.58378242e-05	1.38641258e-04	1.35158453e-04	3.48280473e-06
134             	-3.28724474e-01	-1.63856542e-01	-1.64867932e-01	-3.93443265e+00	8.92887952e-02	-4.02372145e+00	2.05650512e+00	5.05694870e-04	-3.90571531e-05	6.32925100e-05	-7.41089809e-06	7.07034081e-05
135             	-3.14321741e-01	-1.56805054e-01	-1.57516688e-01	-4.02500244e+00	5.24104358e-02	-4.07741288e+00	2.06491166e+00	3.55816918e-04	-1.24205404e-04	-1.64145702e-05	-1.32412690e-04	1.15998119e-04
136             	-2.88469938e-01	-1.44055804e-01	-1.44414134e-01	-4.16403466e+00	1.48548680e-02	-4.17888952e+00	2.09687220e+00	1.79165225e-04	-1.58173499e-04	-4.48464560e-05	-1.80596727e-04	1.35750271e-04
137             	-2.52458101e-01	-1.26236172e-01	-1.26221929e-01	-4.34847197e+00	-2.30789620e-02	-4.32539301e+00	2.15115703e+00	-7.12123371e-06	-1.63297497e-04	-3.35036545e-05	-1.80049324e-04	1.46545670e-04
138             	-2.07695049e-01	-1.04047186e-01	-1.03647864e-01	-4.56483200e+00	-6.01440723e-02	-4.50468792e+00	2.22227193e+00	-1.99661212e-04	-1.43854470e-04	-1.68135600e-05	-1.52261250e-04	1.35447690e-04
139             	-1.56590823e-01	-7.86820803e-02	-7.79087426e-02	-4.78668495e+00	-9.71227312e-02	-4.68956221e+00	2.29621974e+00	-3.86668885e-04	-1.28556759e-04	-2.81900439e-05	-1.42651781e-04	1.14461737e-04
140             	-1.01569612e-01	-5.13453100e-02	-5.02243022e-02	-4.98533757e+00	-1.33744775e-01	-4.85159279e+00	2.35892401e+00	-5.60503921e-04	-9.30397157e-05	-3.60550423e-05	-1.11067237e-04	7.50121946e-05
141             	-4.55831084e-02	-2.34912921e-02	-2.20918163e-02	-5.14103040e+00	-1.71392527e-01	-4.96963788e+00	2.39912267e+00	-6.99737892e-04	-6.51916373e-05	-2.94659568e-05	-7.99246157e-05	5.04586589e-05
142             	7.50927435e-03	2.97851219e-03	4.53076216e-03	-5.24085442e+00	-2.10335318e-01	-5.03051911e+00	2.41009189e+00	-7.76124987e-04	-3.81546641e-05	-3.10164793e-05	-5.36629037e-05	2.26464244e-05