# Moment        
# CofR          : (2.50000000e-01 0.00000000e+00 0.00000000e+00)
#
# Time          	total_x total_y total_z	pressure_x pressure_y pressure_z	viscous_x viscous_y viscous_z
1                -2.21916829e-04 1.58202956e-04 -2.56669543e-01 -2.21909516e-04 1.58411803e-04 -2.56655274e-01 -7.31298960e-09 -2.08847681e-07 -1.42694211e-05
2                -3.23396587e-03 2.22704963e-04 -5.71911300e-01 -3.22082011e-03 2.21805141e-04 -5.71898650e-01 -1.31457640e-05 8.99822211e-07 -1.26498634e-05
3                -6.00028991e-03 7.82560250e-04 -7.27658325e-01 -5.97789456e-03 7.80612076e-04 -7.27648913e-01 -2.23953474e-05 1.94817411e-06 -9.41196554e-06
4                -8.35195321e-03 1.83468978e-03 -8.09164859e-01 -8.32702994e-03 1.83324368e-03 -8.09156614e-01 -2.49232701e-05 1.44609864e-06 -8.24472549e-06
5                -9.86215108e-03 2.79697251e-03 -9.06404238e-01 -9.84334633e-03 2.79689171e-03 -9.06397570e-01 -1.88047423e-05 8.08009496e-08 -6.66758903e-06
6                -9.04359256e-03 3.29348224e-03 -1.09962974e+00 -9.03641303e-03 3.29394939e-03 -1.09962893e+00 -7.17952836e-06 -4.67149459e-07 -8.12640031e-07
7                -4.89427696e-03 3.20346589e-03 -1.40557838e+00 -4.89843838e-03 3.20385345e-03 -1.40558696e+00 4.16141357e-06 -3.87552206e-07 8.57245171e-06
8                1.39271969e-03 2.64568988e-03 -1.76262957e+00 1.38132771e-03 2.64517085e-03 -1.76264951e+00 1.13919750e-05 5.19024091e-07 1.99408384e-05
9                7.70371733e-03 1.79211426e-03 -2.07396924e+00 7.68879896e-03 1.78973247e-03 -2.07400050e+00 1.49183694e-05 2.38179107e-06 3.12538447e-05
10               1.23758502e-02 7.64586355e-04 -2.32249614e+00 1.23597529e-02 7.60585383e-04 -2.32253707e+00 1.60973351e-05 4.00097141e-06 4.09353307e-05
11               1.45773576e-02 -2.66859222e-04 -2.52934005e+00 1.45631035e-02 -2.71941433e-04 -2.52939004e+00 1.42541393e-05 5.08221128e-06 4.99879917e-05
12               1.40849066e-02 -1.13795087e-03 -2.71891052e+00 1.40739092e-02 -1.14364497e-03 -2.71896839e+00 1.09974325e-05 5.69410066e-06 5.78698158e-05
13               1.11363897e-02 -1.77312352e-03 -2.88880752e+00 1.11299056e-02 -1.77965420e-03 -2.88887260e+00 6.48408580e-06 6.53068484e-06 6.50778459e-05
14               6.52087678e-03 -2.13351919e-03 -3.03881197e+00 6.51890905e-03 -2.14068599e-03 -3.03888362e+00 1.96773041e-06 7.16679484e-06 7.16520910e-05
15               1.24387231e-03 -2.23234332e-03 -3.16613876e+00 1.24539202e-03 -2.23978124e-03 -3.16621686e+00 -1.51971095e-06 7.43791947e-06 7.80993720e-05
16               -3.63345849e-03 -2.11078071e-03 -3.25288447e+00 -3.62984555e-03 -2.11821618e-03 -3.25296899e+00 -3.61294335e-06 7.43547300e-06 8.45113843e-05
17               -7.23429230e-03 -1.83400104e-03 -3.29611129e+00 -7.22994837e-03 -1.84117916e-03 -3.29620214e+00 -4.34393250e-06 7.17811687e-06 9.08454634e-05
18               -9.09620867e-03 -1.47511079e-03 -3.31252625e+00 -9.09212962e-03 -1.48185770e-03 -3.31262361e+00 -4.07905815e-06 6.74690132e-06 9.73596780e-05
19               -9.20173728e-03 -1.09664461e-03 -3.31943068e+00 -9.19850253e-03 -1.10281452e-03 -3.31953468e+00 -3.23474285e-06 6.16990896e-06 1.03995700e-04
20               -7.86958721e-03 -7.42451417e-04 -3.32811752e+00 -7.86740076e-03 -7.47967623e-04 -3.32822816e+00 -2.18645084e-06 5.51620632e-06 1.10634820e-04
21               -5.59862522e-03 -4.39284271e-04 -3.34206661e+00 -5.59753111e-03 -4.44326198e-04 -3.34218377e+00 -1.09410542e-06 5.04192768e-06 1.17159633e-04
22               -2.91399584e-03 -1.98989685e-04 -3.36157602e+00 -2.91395356e-03 -2.03907754e-04 -3.36169963e+00 -4.22753373e-08 4.91806871e-06 1.23609895e-04
23               -2.65982925e-04 -2.12120054e-05 -3.38368590e+00 -2.66857618e-04 -2.61783441e-05 -3.38381591e+00 8.74692849e-07 4.96633867e-06 1.30019118e-04
24               1.98419181e-03 1.02036407e-04 -3.40593512e+00 1.98260614e-03 9.69125395e-05 -3.40607147e+00 1.58566979e-06 5.12386787e-06 1.36350306e-04
25               3.57252277e-03 1.79861707e-04 -3.43045407e+00 3.57046019e-03 1.74535755e-04 -3.43059655e+00 2.06258824e-06 5.32595276e-06 1.42483989e-04
26               4.40372588e-03 2.20648449e-04 -3.46065504e+00 4.40141080e-03 2.15157570e-04 -3.46080342e+00 2.31507515e-06 5.49087850e-06 1.48376092e-04
27               4.57167314e-03 2.33465203e-04 -3.49430292e+00 4.56929561e-03 2.27905726e-04 -3.49445682e+00 2.37753330e-06 5.55947664e-06 1.53891859e-04
28               4.27519934e-03 2.28999827e-04 -3.52568628e+00 4.27290565e-03 2.23468180e-04 -3.52584510e+00 2.29368881e-06 5.53164741e-06 1.58813107e-04
29               3.70671101e-03 2.16420442e-04 -3.55198978e+00 3.70459760e-03 2.11025222e-04 -3.55215272e+00 2.11341364e-06 5.39522017e-06 1.62942551e-04
30               3.02073769e-03 2.01520931e-04 -3.57290484e+00 3.01886319e-03 1.96354282e-04 -3.57307100e+00 1.87449522e-06 5.16664959e-06 1.66161259e-04
31               2.32794467e-03 1.87207503e-04 -3.58905245e+00 2.32633594e-03 1.82346561e-04 -3.58922094e+00 1.60873391e-06 4.86094211e-06 1.68486443e-04
32               1.69507127e-03 1.74194321e-04 -3.60109675e+00 1.69372765e-03 1.69698869e-04 -3.60126680e+00 1.34361763e-06 4.49545270e-06 1.70045718e-04
33               1.15230432e-03 1.61496353e-04 -3.60936884e+00 1.15121499e-03 1.57410282e-04 -3.60953986e+00 1.08932231e-06 4.08607120e-06 1.71015644e-04
34               7.10563098e-04 1.46828217e-04 -3.61255937e+00 7.09703321e-04 1.43175005e-04 -3.61273097e+00 8.59777201e-07 3.65321188e-06 1.71598094e-04
35               3.63027146e-04 1.28770001e-04 -3.60925180e+00 3.62367081e-04 1.25557176e-04 -3.60942380e+00 6.60064695e-07 3.21282564e-06 1.72002450e-04
36               8.74636958e-05 1.07821665e-04 -3.60027488e+00 8.69728003e-05 1.05037142e-04 -3.60044729e+00 4.90895548e-07 2.78452354e-06 1.72412240e-04
37               -1.39609942e-04 8.54101361e-05 -3.58799234e+00 -1.39963283e-04 8.30344980e-05 -3.58816530e+00 3.53341388e-07 2.37563811e-06 1.72962694e-04
38               -3.31901698e-04 6.29904518e-05 -3.57469056e+00 -3.32146024e-04 6.09914699e-05 -3.57486431e+00 2.44325862e-07 1.99898187e-06 1.73756304e-04
39               -4.91860793e-04 4.17258955e-05 -3.56187677e+00 -4.92019591e-04 4.00682340e-05 -3.56205163e+00 1.58798343e-07 1.65766149e-06 1.74857464e-04
40               -6.15917328e-04 2.24090621e-05 -3.55046800e+00 -6.16018656e-04 2.10615750e-05 -3.55064430e+00 1.01327992e-07 1.34748712e-06 1.76297477e-04
41               -6.99667376e-04 5.40860466e-06 -3.54117299e+00 -6.99736898e-04 4.34145881e-06 -3.54135108e+00 6.95219433e-08 1.06714585e-06 1.78090393e-04
42               -7.42090707e-04 -8.93705904e-06 -3.53481310e+00 -7.42149536e-04 -9.75277102e-06 -3.53499332e+00 5.88285775e-08 8.15711975e-07 1.80222457e-04
43               -7.49593296e-04 -1.94638845e-05 -3.53230876e+00 -7.49657382e-04 -2.00554806e-05 -3.53249141e+00 6.40858419e-08 5.91596139e-07 1.82648780e-04
44               -7.31041223e-04 -2.53962982e-05 -3.53389027e+00 -7.31117794e-04 -2.57913519e-05 -3.53407559e+00 7.65713681e-08 3.95053704e-07 1.85319433e-04
45               -6.94540999e-04 -2.69867602e-05 -3.53903206e+00 -6.94628300e-04 -2.72133338e-05 -3.53922021e+00 8.73012519e-08 2.26573643e-07 1.88153548e-04
46               -6.55618798e-04 -2.41479427e-05 -3.54637235e+00 -6.55711656e-04 -2.42530840e-05 -3.54656320e+00 9.28582061e-08 1.05141284e-07 1.90846943e-04
47               -6.15232961e-04 -1.86308997e-05 -3.55561845e+00 -6.15330592e-04 -1.86275446e-05 -3.55581196e+00 9.76307626e-08 -3.35511525e-09 1.93506192e-04
48               -5.78177003e-04 -1.17047432e-05 -3.56662000e+00 -5.78275636e-04 -1.16144631e-05 -3.56681604e+00 9.86329965e-08 -9.02800942e-08 1.96044113e-04
49               -5.49060996e-04 -4.24984706e-06 -3.57919891e+00 -5.49156377e-04 -4.09157940e-06 -3.57939735e+00 9.53812751e-08 -1.58267663e-07 1.98440086e-04
50               -5.30803753e-04 3.09858986e-06 -3.59305648e+00 -5.30891447e-04 3.30897275e-06 -3.59325718e+00 8.76938098e-08 -2.10382894e-07 2.00698542e-04
51               -5.23918142e-04 9.84052677e-06 -3.60759817e+00 -5.23994683e-04 1.00881329e-05 -3.60780101e+00 7.65407543e-08 -2.47606101e-07 2.02834948e-04
52               -5.26212231e-04 1.55508891e-05 -3.62188496e+00 -5.26275381e-04 1.58229690e-05 -3.62208983e+00 6.31501302e-08 -2.72079852e-07 2.04867178e-04
53               -5.33618874e-04 1.99078756e-05 -3.63501787e+00 -5.33667757e-04 2.01940430e-05 -3.63522468e+00 4.88834023e-08 -2.86167406e-07 2.06809638e-04
54               -5.37959234e-04 2.24527990e-05 -3.64742605e+00 -5.37994391e-04 2.27444468e-05 -3.64763486e+00 3.51561784e-08 -2.91647819e-07 2.08806365e-04
55               -5.38236168e-04 2.32194419e-05 -3.65889237e+00 -5.38255684e-04 2.35112452e-05 -3.65910312e+00 1.95157863e-08 -2.91803254e-07 2.10755038e-04
56               -5.32078366e-04 2.24178158e-05 -3.66961679e+00 -5.32083457e-04 2.27038250e-05 -3.66982946e+00 5.09162744e-09 -2.86009195e-07 2.12667207e-04
57               -5.17560082e-04 2.02781027e-05 -3.68000822e+00 -5.17553764e-04 2.05537478e-05 -3.68022276e+00 -6.31841943e-09 -2.75645109e-07 2.14535803e-04
58               -4.93448976e-04 1.70108776e-05 -3.69045993e+00 -4.93434892e-04 1.72730690e-05 -3.69067628e+00 -1.40846603e-08 -2.62191360e-07 2.16349027e-04
59               -4.58929890e-04 1.28730262e-05 -3.70084733e+00 -4.58911642e-04 1.31204773e-05 -3.70106542e+00 -1.82478175e-08 -2.47451124e-07 2.18096480e-04
60               -4.14361083e-04 8.25351585e-06 -3.71050804e+00 -4.14341645e-04 8.48662930e-06 -3.71072781e+00 -1.94372918e-08 -2.33113447e-07 2.19770397e-04
61               -3.62153456e-04 3.63749703e-06 -3.71896579e+00 -3.62134903e-04 3.85736887e-06 -3.71918716e+00 -1.85522501e-08 -2.19871840e-07 2.21365980e-04
62               -3.05988053e-04 -6.01186853e-07 -3.72651700e+00 -3.05971626e-04 -3.92813702e-07 -3.72673988e+00 -1.64261533e-08 -2.08373151e-07 2.22881019e-04
63               -2.49347865e-04 -4.27005020e-06 -3.73379084e+00 -2.49334187e-04 -4.07117719e-06 -3.73401515e+00 -1.36778175e-08 -1.98873013e-07 2.24315166e-04
64               -1.95185439e-04 -7.27896900e-06 -3.74133659e+00 -1.95174579e-04 -7.08763758e-06 -3.74156226e+00 -1.08602195e-08 -1.91331422e-07 2.25672458e-04
65               -1.45995376e-04 -9.58779068e-06 -3.74952321e+00 -1.45987040e-04 -9.40207967e-06 -3.74975017e+00 -8.33626512e-09 -1.85711008e-07 2.26962018e-04
66               -1.03846519e-04 -1.11800811e-05 -3.75842167e+00 -1.03840299e-04 -1.09986534e-05 -3.75864986e+00 -6.21964911e-09 -1.81427707e-07 2.28194990e-04
67               -7.00051037e-05 -1.20468286e-05 -3.76730007e+00 -7.00004004e-05 -1.18683702e-05 -3.76752945e+00 -4.70327748e-09 -1.78458370e-07 2.29379995e-04
68               -4.45241877e-05 -1.22145739e-05 -3.77509561e+00 -4.45204710e-05 -1.20381491e-05 -3.77532614e+00 -3.71669024e-09 -1.76424829e-07 2.30523416e-04
69               -2.66796377e-05 -1.17271390e-05 -3.78112101e+00 -2.66766038e-05 -1.15522323e-05 -3.78135264e+00 -3.03388452e-09 -1.74906688e-07 2.31626194e-04
70               -1.54047744e-05 -1.06393005e-05 -3.78539438e+00 -1.54022844e-05 -1.04656736e-05 -3.78562706e+00 -2.48999346e-09 -1.73626850e-07 2.32683319e-04
71               -9.34276179e-06 -9.10278181e-06 -3.78875885e+00 -9.34080008e-06 -8.93053594e-06 -3.78899254e+00 -1.96170864e-09 -1.72245870e-07 2.33690990e-04
72               -7.10471092e-06 -7.31179116e-06 -3.79193533e+00 -7.10329473e-06 -7.14124624e-06 -3.79216997e+00 -1.41618986e-09 -1.70544919e-07 2.34643457e-04
73               -7.54570584e-06 -5.43263770e-06 -3.79530803e+00 -7.54489176e-06 -5.26413454e-06 -3.79554357e+00 -8.14080465e-10 -1.68503161e-07 2.35540496e-04
74               -9.74693085e-06 -3.59507803e-06 -3.79904809e+00 -9.74676873e-06 -3.42876408e-06 -3.79928447e+00 -1.62122175e-10 -1.66313949e-07 2.36388358e-04
75               -1.27131563e-05 -1.90981624e-06 -3.80302169e+00 -1.27136264e-05 -1.74568279e-06 -3.80325889e+00 4.70140627e-10 -1.64133459e-07 2.37193860e-04
76               -1.51539590e-05 -4.89822181e-07 -3.80672146e+00 -1.51550086e-05 -3.27783871e-07 -3.80695942e+00 1.04963642e-09 -1.62038310e-07 2.37962035e-04
77               -1.60531723e-05 5.90109235e-07 -3.80974951e+00 -1.60547014e-05 7.50298055e-07 -3.80998820e+00 1.52913203e-09 -1.60188820e-07 2.38696912e-04
78               -1.47373796e-05 1.29257754e-06 -3.81200253e+00 -1.47392305e-05 1.45131784e-06 -3.81224193e+00 1.85091013e-09 -1.58740300e-07 2.39397803e-04
79               -1.10196665e-05 1.59906399e-06 -3.81362643e+00 -1.10216650e-05 1.75670429e-06 -3.81386649e+00 1.99854716e-09 -1.57640305e-07 2.40060534e-04
80               -5.44784093e-06 1.57288810e-06 -3.81501607e+00 -5.44981803e-06 1.72968494e-06 -3.81525675e+00 1.97710001e-09 -1.56796846e-07 2.40682785e-04
81               1.28415877e-06 1.32091473e-06 -3.81652035e+00 1.28236852e-06 1.47703857e-06 -3.81676161e+00 1.79025400e-09 -1.56123847e-07 2.41263182e-04
82               8.55383604e-06 9.35160842e-07 -3.81830466e+00 8.55239682e-06 1.09084509e-06 -3.81854647e+00 1.43921996e-09 -1.55684251e-07 2.41804467e-04
83               1.58376648e-05 4.96752310e-07 -3.82022241e+00 1.58367354e-05 6.54387345e-07 -3.82046469e+00 9.29393208e-10 -1.57635035e-07 2.42275874e-04
84               2.24385914e-05 5.88337695e-08 -3.82219055e+00 2.24383341e-05 2.18631186e-07 -3.82243327e+00 2.57234243e-10 -1.59797416e-07 2.42721474e-04
85               2.79066597e-05 -3.40351484e-07 -3.82400733e+00 2.79071432e-05 -1.78143748e-07 -3.82425047e+00 -4.83590189e-10 -1.62207736e-07 2.43143135e-04
86               3.20569815e-05 -6.86307864e-07 -3.82550235e+00 3.20582225e-05 -5.21626354e-07 -3.82574590e+00 -1.24102219e-09 -1.64681510e-07 2.43546944e-04
87               3.48700645e-05 -9.71902987e-07 -3.82662961e+00 3.48720332e-05 -8.04706881e-07 -3.82687354e+00 -1.96871430e-09 -1.67196106e-07 2.43936097e-04
88               3.64169761e-05 -1.18182384e-06 -3.82746838e+00 3.64196400e-05 -1.01214537e-06 -3.82771269e+00 -2.66395634e-09 -1.69678476e-07 2.44311206e-04
89               3.68306707e-05 -1.29264365e-06 -3.82815675e+00 3.68339945e-05 -1.12060323e-06 -3.82840142e+00 -3.32381084e-09 -1.72040419e-07 2.44671781e-04
90               3.62844437e-05 -1.29032494e-06 -3.82881658e+00 3.62883906e-05 -1.11611331e-06 -3.82906159e+00 -3.94688000e-09 -1.74211626e-07 2.45017528e-04
91               3.49675042e-05 -1.17869762e-06 -3.82952478e+00 3.49720414e-05 -1.00254504e-06 -3.82977013e+00 -4.53722079e-09 -1.76152583e-07 2.45349347e-04
