/*--------------------------------*- C++ -*----------------------------------*\
| =========                 |                                                 |
| \\      /  F ield         | OpenFOAM: The Open Source CFD Toolbox           |
|  \\    /   O peration     | Version:  2406                                  |
|   \\  /    A nd           | Website:  www.openfoam.com                      |
|    \\/     M anipulation  |                                                 |
\*---------------------------------------------------------------------------*/
FoamFile
{
    version     2.0;
    format      ascii;
    arch        "LSB;label=32;scalar=64";
    class       volScalarField;
    location    "500";
    object      k;
}
// * * * * * * * * * * * * * * * * * * * * * * * * * * * * * * * * * * * * * //

dimensions      [0 2 -2 0 0 0 0];

internalField   nonuniform List<scalar> 
16045
(
0.054775857
0.047087392
0.041212997
0.036587699
0.032859344
0.029792327
0.027229579
0.025055942
0.023192473
0.021575897
0.020163201
0.018916238
0.017810339
0.016820599
0.015932573
0.015128728
0.014400797
0.013735477
0.013128525
0.012569082
0.012055707
0.011578938
0.011139383
0.010728358
0.010348029
0.0099901183
0.0096580045
0.009343599
0.0090512384
0.0087729059
0.0085136883
0.0082655917
0.0080342833
0.0078117711
0.0076041821
0.0074034949
0.0072162416
0.0070343009
0.0068646283
0.0066988862
0.0065445291
0.0063928632
0.0062519355
0.0061125735
0.0059834831
0.0058549419
0.00573633
0.005617362
0.0055080631
0.0053976081
0.0052966222
0.0051937667
0.0051002383
0.0050041851
0.0049173829
0.0048274279
0.0047467314
0.0046622396
0.0045871297
0.004507525
0.0044375511
0.004362345
0.0042970704
0.0042258711
0.0041648978
0.0040973263
0.0040403568
0.0039760394
0.0039227945
0.0038614471
0.0038116381
0.0037530081
0.0037063896
0.0036502576
0.0036065859
0.0035527519
0.0035118473
0.0034600928
0.0034217944
0.0033719356
0.0033361034
0.0032879566
0.0032544642
0.0032078688
0.0031766093
0.0031314132
0.0031022606
0.0030583786
0.0030311726
0.0029885494
0.0029631519
0.0029216811
0.0028980524
0.0028575888
0.0028356453
0.0027961491
0.0027762489
0.0027374901
0.0027158665
0.0026734279
0.054775927
0.047087297
0.04121304
0.036587604
0.032859356
0.029792237
0.027229564
0.025055859
0.023192435
0.021575823
0.020163146
0.018916173
0.017810271
0.016820545
0.015932493
0.015128685
0.014400706
0.013735447
0.013128423
0.012569067
0.012055596
0.011578935
0.011139263
0.010728367
0.010347905
0.0099901373
0.0096578784
0.0093436246
0.0090511166
0.0087729324
0.0085135786
0.0082656126
0.0080341928
0.007811781
0.0076041149
0.0074034927
0.007216197
0.0070342899
0.0068646012
0.0066988719
0.0065445137
0.0063928499
0.0062519287
0.0061125619
0.0059834839
0.0058549315
0.0057363374
0.0056173537
0.0055080743
0.0053976035
0.0052966347
0.0051937667
0.0051002504
0.0050041895
0.0049173943
0.0048274357
0.0047467422
0.0046622495
0.0045871405
0.0045075358
0.0044375621
0.004362356
0.0042970817
0.0042258818
0.0041649093
0.0040973369
0.0040403681
0.0039760499
0.0039228056
0.0038614572
0.003811649
0.003753018
0.0037064002
0.0036502672
0.0036065964
0.0035527611
0.0035118575
0.0034601016
0.0034218043
0.0033719438
0.0033361128
0.0032879643
0.003254473
0.0032078758
0.0031766173
0.0031314192
0.0031022676
0.0030583834
0.0030311782
0.0029885527
0.0029631558
0.0029216825
0.0028980541
0.0028575879
0.0028356443
0.0027961454
0.0027762446
0.0027374829
0.002715859
0.0026734186
0.054775912
0.047087312
0.04121303
0.036587604
0.032859355
0.029792219
0.027229574
0.025055823
0.023192458
0.021575774
0.020163177
0.018916118
0.017810302
0.016820492
0.015932517
0.015128641
0.01440072
0.013735415
0.01312843
0.012569043
0.012055598
0.011578916
0.011139266
0.010728353
0.010347907
0.0099901298
0.0096578801
0.0093436266
0.0090511155
0.0087729468
0.0085135722
0.0082656426
0.0080341782
0.0078118299
0.0076040899
0.0074035614
0.007216162
0.0070343757
0.0068645596
0.0066989692
0.0065444704
0.0063929529
0.0062518871
0.006112667
0.0059834452
0.0058550364
0.0057363025
0.0056174555
0.0055080454
0.0053976987
0.0052966139
0.0051938519
0.005100241
0.005004259
0.0049174028
0.0048274815
0.0047467735
0.0046622732
0.0045871825
0.0045075585
0.0044375918
0.0043623907
0.0042971036
0.0042259096
0.004164941
0.0040973573
0.0040403937
0.0039760781
0.0039228277
0.0038614774
0.0038116762
0.0037530399
0.0037064195
0.0036502888
0.0036066208
0.0035527797
0.0035118765
0.0034601225
0.0034218261
0.0033719611
0.003336131
0.0032879834
0.003254493
0.0032078921
0.0031766338
0.0031314359
0.0031022853
0.0030583983
0.0030311925
0.0029885661
0.0029631701
0.0029216949
0.0028980656
0.0028575975
0.0028356542
0.0027961536
0.0027762522
0.0027374884
0.0027158641
0.0026734225
0.054775897
0.047087328
0.041213015
0.036587614
0.032859337
0.029792222
0.02722955
0.025055822
0.023192425
0.021575773
0.020163135
0.018916116
0.017810253
0.016820487
0.015932465
0.015128632
0.014400668
0.013735402
0.013128377
0.01256903
0.012055545
0.011578906
0.011139213
0.010728347
0.010347858
0.0099901248
0.0096578387
0.0093436211
0.0090510863
0.008772939
0.0085135591
0.0082656303
0.0080341849
0.007811811
0.0076041183
0.007403535
0.0072162119
0.0070343427
0.0068646289
0.0066989314
0.0065445555
0.0063929127
0.0062519831
0.006112628
0.0059835463
0.0058550024
0.005736403
0.0056174295
0.005508141
0.0053976819
0.0052967021
0.005193845
0.0051003186
0.0050042656
0.0049174628
0.0048275087
0.0047468101
0.0046623194
0.0045872068
0.0045076024
0.0044376267
0.0043624186
0.0042971444
0.0042259411
0.0041649694
0.0040973936
0.0040404258
0.0039761035
0.003922861
0.0038615085
0.0038117015
0.0037530671
0.0037064507
0.0036503142
0.0036066447
0.0035528064
0.0035119041
0.0034601448
0.0034218489
0.0033719856
0.0033361559
0.0032880041
0.0032545143
0.0032079142
0.003176657
0.0031314559
0.0031023055
0.0030584185
0.0030312143
0.0029885858
0.0029631895
0.0029217134
0.0028980853
0.0028576162
0.0028356725
0.0027961705
0.0027762691
0.0027375042
0.0027158796
0.0026734373
0.054775958
0.047087255
0.041213071
0.036587543
0.032859381
0.029792158
0.027229578
0.025055769
0.023192436
0.021575732
0.020163129
0.018916086
0.017810233
0.016820467
0.015932434
0.015128619
0.014400632
0.013735393
0.01312834
0.012569024
0.012055509
0.011578904
0.011139178
0.01072835
0.010347826
0.0099901371
0.0096578094
0.0093436434
0.0090510609
0.0087729721
0.0085135387
0.0082656747
0.00803417
0.0078118673
0.0076041081
0.0074036045
0.0072162038
0.007034427
0.0068646199
0.0066990313
0.0065445438
0.0063930262
0.0062519695
0.0061127503
0.0059835338
0.0058551276
0.0057363948
0.005617552
0.0055081397
0.0053977976
0.0052967093
0.0051939506
0.0051003368
0.0050043559
0.0049174977
0.004827576
0.0047468665
0.0046623649
0.0045872729
0.0045076472
0.0044376791
0.0043624759
0.0042971879
0.0042259913
0.0041650224
0.0040974358
0.004040472
0.0039761533
0.0039229029
0.0038615494
0.0038117483
0.0037531089
0.0037064888
0.0036503548
0.0036066874
0.003552843
0.0035119405
0.0034601831
0.0034218877
0.0033720195
0.0033361904
0.0032880398
0.0032545505
0.0032079467
0.0031766895
0.003131489
0.0031023395
0.0030584501
0.0030312452
0.0029886164
0.0029632212
0.0029217437
0.0028981149
0.0028576445
0.0028357013
0.0027961985
0.0027762966
0.0027375304
0.0027159055
0.0026734621
0.054775917
0.047087307
0.041213023
0.036587593
0.032859333
0.029792191
0.027229544
0.025055774
0.023192424
0.021575704
0.02016314
0.018916031
0.017810258
0.016820398
0.015932457
0.015128558
0.014400631
0.01373536
0.013128302
0.01256903
0.012055431
0.011578948
0.011139073
0.010728419
0.010347711
0.0099902162
0.0096576986
0.0093437268
0.0090509609
0.0087730587
0.0085134528
0.0082657633
0.0080341026
0.007811953
0.0076040665
0.0074036803
0.0072161943
0.007034488
0.0068646433
0.0066990782
0.0065445942
0.0063930649
0.0062520374
0.0061127871
0.0059836116
0.005855165
0.0057364788
0.0056175897
0.0055082285
0.005397834
0.005296802
0.0051939855
0.0051004293
0.0050043945
0.0049175802
0.0048276287
0.0047469292
0.0046624339
0.0045873236
0.0045077136
0.0044377392
0.0043625268
0.004297253
0.0042260454
0.0041650748
0.0040974942
0.0040405275
0.0039762008
0.0039229593
0.0038616025
0.0038117968
0.0037531583
0.0037065429
0.0036504025
0.0036067341
0.0035528919
0.0035119905
0.0034602278
0.0034219328
0.003372066
0.003336237
0.0032880822
0.0032545929
0.0032079897
0.003176733
0.0031315291
0.003102379
0.0030584894
0.0030312854
0.0029886544
0.0029632582
0.0029217797
0.0028981515
0.0028576801
0.0028357362
0.002796232
0.00277633
0.0027375629
0.0027159376
0.0026734935
0.054775968
0.047087237
0.041213102
0.036587492
0.032859439
0.029792062
0.027229673
0.025055619
0.02319257
0.021575529
0.020163293
0.01891585
0.017810402
0.016820234
0.015932568
0.015128435
0.014400689
0.013735297
0.013128295
0.012569032
0.012055366
0.011579007
0.011138965
0.01072852
0.01034758
0.0099903421
0.0096575666
0.0093438608
0.0090508448
0.0087731897
0.0085133628
0.0082658866
0.0080340422
0.0078120679
0.0076040356
0.0074037874
0.0072161907
0.0070345884
0.0068646634
0.0066991733
0.0065446341
0.006393155
0.0062520937
0.0061128722
0.0059836804
0.0058552463
0.0057365555
0.0056176687
0.005508309
0.0053979119
0.0052968832
0.0051940631
0.0051005095
0.0050044717
0.0049176585
0.0048277053
0.0047470053
0.0046625094
0.0045873975
0.0045077876
0.0044378111
0.004362599
0.0042973232
0.0042261157
0.0041651432
0.0040975624
0.0040405939
0.0039762672
0.0039230237
0.003861667
0.0038118595
0.0037532209
0.0037066039
0.003650463
0.0036067933
0.0035529503
0.0035120479
0.0034602844
0.0034219884
0.0033721207
0.0033362907
0.003288135
0.0032546447
0.0032080407
0.0031767828
0.0031315782
0.0031024268
0.0030585365
0.0030313312
0.0029886994
0.0029633021
0.0029218226
0.0028981935
0.002857721
0.0028357763
0.0027962708
0.0027763682
0.0027375999
0.0027159746
0.0026735284
0.054775994
0.047087203
0.04121313
0.036587453
0.032859465
0.02979202
0.027229694
0.025055575
0.023192582
0.021575486
0.020163293
0.018915811
0.017810392
0.016820196
0.015932555
0.015128394
0.014400679
0.013735249
0.013128293
0.01256898
0.012055369
0.011578957
0.011138969
0.010728482
0.010347582
0.0099903198
0.0096575688
0.0093438528
0.0090508561
0.0087731899
0.0085133928
0.0082658894
0.0080340965
0.0078120723
0.0076041136
0.0074037961
0.0072162877
0.0070346056
0.0068647723
0.0066992037
0.0065447464
0.0063932026
0.0062522026
0.0061129376
0.0059837824
0.005855327
0.0057366495
0.005617762
0.0055083928
0.0053980185
0.0052969509
0.0051941882
0.0051005518
0.0050046236
0.0049176659
0.004827891
0.0047469724
0.0046627297
0.004587327
0.0045080357
0.0044377114
0.0043628678
0.0042971974
0.0042264086
0.0041649805
0.0040978959
0.0040403759
0.0039766569
0.0039227435
0.0038621077
0.0038115362
0.0037536831
0.0037062704
0.0036509189
0.0036064671
0.0035533958
0.0035117224
0.0034607327
0.0034216495
0.0033725845
0.003335928
0.003288626
0.0032542427
0.0032085774
0.0031763267
0.0031321623
0.0031019392
0.0030591189
0.0030308765
0.0029892264
0.0029628976
0.0029223255
0.0028977749
0.0028582295
0.002835377
0.0027967262
0.0027751012
0.0027374213
0.0027212849
0.0026688506
0.05477601
0.047087183
0.041213148
0.036587426
0.032859484
0.029791987
0.027229708
0.025055536
0.023192589
0.021575444
0.020163294
0.018915766
0.017810387
0.016820145
0.01593255
0.015128333
0.014400681
0.013735177
0.013128306
0.012568901
0.012055387
0.011578886
0.01113898
0.010728436
0.010347575
0.0099903131
0.0096575401
0.0093438897
0.0090508113
0.0087732645
0.0085133441
0.0082659911
0.0080340574
0.0078121901
0.0076040941
0.007403921
0.0072162939
0.0070347308
0.0068648068
0.0066993245
0.0065448075
0.0063933185
0.0062522834
0.0061130514
0.0059838751
0.0058554406
0.0057367488
0.0056178747
0.0055084957
0.0053981293
0.005297055
0.0051942966
0.0051006552
0.005004729
0.0049177679
0.0048279928
0.0047470723
0.0046628279
0.0045874238
0.004508131
0.0044378047
0.0043629602
0.0042972875
0.0042264977
0.0041650679
0.0040979817
0.0040404606
0.0039767397
0.0039228256
0.0038621876
0.0038116158
0.0037537605
0.0037063475
0.0036509939
0.0036065419
0.0035534687
0.0035117951
0.0034608037
0.0034217201
0.0033726535
0.0033359966
0.0032886933
0.0032543096
0.0032086429
0.0031763919
0.0031322262
0.0031020028
0.0030591813
0.0030309385
0.0029892872
0.002962958
0.0029223847
0.0028978337
0.002858287
0.0028354339
0.0027967819
0.0027751562
0.002737475
0.0027213386
0.0026689032
0.054775893
0.047087332
0.041212996
0.036587596
0.032859306
0.029792162
0.027229518
0.025055702
0.023192401
0.021575589
0.020163118
0.018915878
0.017810235
0.016820217
0.01593243
0.015128362
0.014400599
0.013735165
0.013128259
0.012568857
0.012055371
0.011578825
0.011138983
0.010728374
0.010347585
0.0099902694
0.0096575484
0.0093438748
0.0090508166
0.0087732801
0.0085133535
0.0082660316
0.00803408
0.0078122491
0.0076041353
0.0074039955
0.0072163535
0.0070348196
0.0068648823
0.0066994257
0.0065448967
0.0063934283
0.0062523846
0.0061131657
0.0059839861
0.0058555557
0.0057368677
0.0056179866
0.0055086232
0.0053982313
0.0052971957
0.0051943792
0.005100817
0.0050047816
0.0049179591
0.0048280065
0.004747298
0.0046628003
0.0045876819
0.0045080678
0.0044380871
0.0043628687
0.0042975904
0.0042263753
0.0041654012
0.0040978126
0.0040408431
0.0039765087
0.0039232645
0.0038619004
0.0038120921
0.0037534464
0.0037068288
0.0036506812
0.0036070111
0.0035531618
0.0035122591
0.0034604896
0.0034221934
0.0033723202
0.0033364899
0.0032883291
0.0032548385
0.0032082298
0.0031769716
0.0031317629
0.0031026112
0.0030587171
0.0030315115
0.0029888763
0.0029634786
0.0029219962
0.0028983664
0.0028578913
0.0028359458
0.0027964379
0.0027765343
0.0027377635
0.0027161369
0.002673689
0.054775912
0.047087301
0.041213037
0.036587541
0.032859367
0.029792083
0.027229588
0.025055606
0.023192471
0.021575482
0.02016318
0.018915768
0.017810284
0.016820112
0.015932459
0.015128269
0.014400605
0.01373509
0.013128244
0.012568802
0.012055339
0.011578788
0.011138946
0.010728349
0.010347557
0.0099902494
0.0096575413
0.009343859
0.0090508333
0.0087732756
0.0085133894
0.0082660485
0.0080341298
0.0078122931
0.0076041979
0.0074040649
0.007216431
0.0070349103
0.006864974
0.0066995349
0.0065449985
0.0063935543
0.0062524913
0.0061133065
0.0059840928
0.005855709
0.0057369709
0.0056181491
0.0055087217
0.0053983982
0.0052972908
0.0051945443
0.0051009132
0.0050049362
0.0049180649
0.0048281397
0.0047474205
0.0046629112
0.004587811
0.0045081759
0.0044382008
0.0043629867
0.0042976935
0.0042264843
0.0041655118
0.0040979118
0.0040409456
0.0039766137
0.0039233614
0.0038619952
0.0038121924
0.0037535408
0.0037069193
0.0036507733
0.0036071049
0.003553249
0.0035123458
0.0034605775
0.0034222814
0.0033724028
0.0033365728
0.0032884124
0.0032549219
0.0032083091
0.0031770505
0.0031318416
0.0031026903
0.0030587932
0.0030315865
0.0029889505
0.0029635533
0.0029220691
0.0028984382
0.0028579614
0.0028360159
0.0027965067
0.0027766023
0.0027378299
0.0027162027
0.0026737527
0.054775886
0.047087334
0.041212996
0.036587589
0.032859299
0.029792148
0.02722949
0.025055686
0.023192348
0.021575566
0.020163045
0.018915843
0.017810148
0.016820171
0.015932329
0.015128314
0.014400476
0.013735134
0.013128106
0.012568855
0.012055193
0.011578852
0.011138803
0.010728416
0.010347433
0.00999031
0.0096574509
0.0093439116
0.0090507806
0.0087733288
0.0085133687
0.0082661158
0.0080341327
0.007812384
0.0076042208
0.0074041796
0.0072164757
0.0070350418
0.0068650443
0.0066996745
0.0065450957
0.0063936949
0.0062526131
0.006113444
0.0059842338
0.0058558423
0.0057371236
0.0056182799
0.0055088768
0.0053985318
0.0052974362
0.0051946915
0.0051010319
0.0050051134
0.0049181366
0.0048283645
0.0047474315
0.0046631861
0.0045877725
0.004508476
0.0044381419
0.0043632924
0.0042976134
0.0042268172
0.0041653829
0.0040982896
0.0040407652
0.0039770371
0.0039231205
0.0038624749
0.0038119013
0.0037540386
0.0037066242
0.0036512635
0.0036068105
0.0035537305
0.0035120559
0.003461058
0.0034219736
0.0033729009
0.0033362431
0.003288934
0.0032545495
0.0032088773
0.0031766252
0.0031324544
0.0031022299
0.0030594036
0.0030311596
0.0029895041
0.0029631736
0.0029225966
0.0028980443
0.0028584942
0.0028356399
0.0027969847
0.0027753577
0.0027376737
0.0027215354
0.0026690964
0.054775873
0.047087346
0.041212977
0.036587603
0.032859268
0.029792167
0.027229438
0.025055714
0.023192267
0.021575611
0.02016293
0.018915903
0.017810006
0.016820236
0.015932177
0.015128366
0.014400336
0.013735156
0.013127996
0.012568842
0.012055117
0.011578812
0.011138752
0.010728372
0.010347394
0.0099902812
0.0096574167
0.0093439088
0.0090507561
0.0087733506
0.0085133665
0.008266157
0.0080341615
0.007812444
0.0076042799
0.0074042626
0.0072165597
0.007035149
0.00686515
0.0066998001
0.0065452228
0.0063938306
0.0062527598
0.0061135837
0.0059843949
0.0058559841
0.0057372907
0.0056184253
0.0055090413
0.0053986817
0.0052975944
0.0051948424
0.0051011853
0.0050052607
0.0049182865
0.0048285065
0.004747577
0.0046633232
0.0045879128
0.0045086087
0.0044382764
0.0043634213
0.0042977422
0.004226942
0.0041655074
0.00409841
0.0040408852
0.0039771537
0.003923236
0.0038625874
0.0038120134
0.0037541476
0.0037067326
0.0036513694
0.0036069161
0.0035538332
0.0035121583
0.0034611579
0.0034220732
0.0033729977
0.0033363398
0.0032890283
0.0032546435
0.0032089689
0.0031767165
0.0031325436
0.0031023185
0.0030594902
0.0030312455
0.0029895881
0.002963257
0.0029226781
0.0028981251
0.0028585733
0.0028357183
0.0027970614
0.0027754336
0.0027377477
0.0027216092
0.0026691687
0.054775763
0.047087486
0.041212839
0.036587753
0.032859112
0.02979231
0.027229278
0.025055839
0.023192108
0.021575709
0.020162776
0.018915977
0.017809855
0.016820285
0.015932035
0.015128384
0.014400217
0.013735129
0.013127921
0.012568759
0.012055095
0.011578679
0.011138782
0.010728206
0.010347461
0.0099901116
0.0096575035
0.0093437603
0.0090508541
0.0087732367
0.0085134783
0.0082660789
0.0080342953
0.0078124002
0.0076044371
0.007404258
0.00721673
0.0070351932
0.0068653188
0.0066998977
0.0065453806
0.0063939765
0.0062529045
0.006113766
0.0059845293
0.0058561876
0.0057374214
0.0056186334
0.0055091769
0.0053988792
0.0052977437
0.0051950152
0.0051013595
0.0050053919
0.0049185021
0.0048285781
0.0047478463
0.0046633324
0.0045882236
0.0045085807
0.0044385989
0.0043633765
0.0042980773
0.0042268599
0.0041658821
0.0040982739
0.0040413027
0.0039769632
0.003923706
0.0038623329
0.0038125257
0.0037538676
0.0037072422
0.00365109
0.0036074181
0.003553556
0.0035126496
0.0034608753
0.0034225763
0.0033726919
0.0033368591
0.0032886932
0.0032551999
0.0032085818
0.0031773205
0.0031321067
0.0031029528
0.003059051
0.0030318418
0.0029892014
0.002963802
0.0029223136
0.0028986807
0.0028582001
0.0028362528
0.00279674
0.0027768341
0.0027380582
0.0027164297
0.0026739758
0.054775763
0.047087489
0.041212817
0.036587769
0.032859069
0.029792327
0.02722922
0.025055842
0.023192048
0.021575687
0.020162723
0.018915924
0.017809812
0.016820203
0.015931998
0.015128282
0.014400181
0.013735017
0.013127879
0.01256865
0.012055046
0.01157858
0.011138726
0.010728125
0.010347404
0.0099900555
0.0096574486
0.0093437387
0.0090508042
0.0087732583
0.0085134379
0.0082661469
0.0080342738
0.0078125088
0.0076044474
0.0074043954
0.0072167822
0.0070353476
0.0068654156
0.0067000611
0.0065455169
0.0063941446
0.0062530699
0.0061139379
0.0059847106
0.0058563648
0.0057376054
0.005618818
0.0055093533
0.0053990736
0.0052979028
0.005195225
0.0051014898
0.0050056259
0.0049185931
0.004828843
0.0047478931
0.0046636284
0.0045882297
0.0045089014
0.0044385724
0.0043637149
0.0042980215
0.0042272194
0.0041657869
0.0040986711
0.0040411501
0.0039774138
0.0039234893
0.0038628321
0.003812264
0.0037543861
0.0037069681
0.0036516002
0.0036071488
0.0035540538
0.0035123789
0.0034613743
0.0034222901
0.0033732046
0.0033365471
0.0032892314
0.003254847
0.0032091641
0.0031769119
0.003132735
0.0031025112
0.0030596766
0.0030314317
0.0029897706
0.0029634406
0.0029228575
0.0028983036
0.002858748
0.0028358931
0.0027972331
0.0027756046
0.0027379154
0.0027217754
0.0026693321
0.054775954
0.047087244
0.041213046
0.036587489
0.032859319
0.029792025
0.02722947
0.025055531
0.02319228
0.021575382
0.02016292
0.018915638
0.017809962
0.016819945
0.015932096
0.015128057
0.014400227
0.013734827
0.013127877
0.012568495
0.012055002
0.011578462
0.011138649
0.010728045
0.010347308
0.009990009
0.009657353
0.0093437193
0.0090507298
0.0087732635
0.0085133969
0.0082661827
0.0080342676
0.0078125853
0.0076044725
0.0074045176
0.0072168366
0.0070355113
0.006865499
0.0067002559
0.0065456283
0.0063943572
0.0062532081
0.0061141542
0.005984874
0.0058565733
0.0057377904
0.0056190127
0.0055095544
0.0053992505
0.0052981183
0.005195377
0.0051017251
0.0050057426
0.0049188555
0.0048289173
0.0047481856
0.0046636602
0.0045885486
0.0045088965
0.004438911
0.0043636799
0.0042983771
0.0042271521
0.0041661702
0.0040985554
0.0040415807
0.003977234
0.0039239744
0.0038625941
0.0038127848
0.0037541193
0.0037074925
0.0036513329
0.0036076597
0.0035537905
0.0035128832
0.003461102
0.0034228021
0.0033729114
0.0033370779
0.0032889059
0.003255412
0.0032087884
0.0031775265
0.0031323075
0.0031031531
0.0030592467
0.003032037
0.0029893924
0.0029639923
0.0029225
0.0028988661
0.0028583816
0.0028364332
0.0027969166
0.0027770092
0.0027382294
0.0027165992
0.0026741427
0.054776021
0.047087162
0.041213107
0.036587409
0.032859356
0.029791958
0.02722947
0.025055484
0.023192231
0.021575359
0.020162818
0.018915634
0.017809815
0.016819953
0.015931917
0.015128061
0.014400034
0.013734811
0.013127692
0.012568447
0.012054843
0.011578379
0.011138523
0.01072794
0.010347207
0.0099899104
0.0096572638
0.0093436561
0.0090506461
0.0087732513
0.0085133295
0.008266219
0.0080342377
0.0078126594
0.0076044966
0.0074046223
0.0072169179
0.0070356431
0.0068656322
0.0067004077
0.0065458077
0.0063945182
0.0062534255
0.0061143164
0.0059851175
0.0058567331
0.0057380482
0.005619168
0.0055098155
0.0053994035
0.0052983711
0.0051955331
0.0051019595
0.0050059068
0.0049190648
0.0048290934
0.0047483669
0.0046638454
0.0045887121
0.0045090728
0.004439078
0.0043638353
0.0042985448
0.0042273049
0.0041663213
0.0040987081
0.0040417301
0.003977372
0.0039241208
0.0038627334
0.0038129198
0.0037542519
0.0037076296
0.0036514608
0.0036077868
0.0035539169
0.0035130105
0.0034612217
0.0034229222
0.0033730308
0.0033371974
0.0032890196
0.0032555256
0.003208901
0.0031776391
0.0031324154
0.0031032599
0.003059352
0.0030321424
0.0029894946
0.0029640928
0.0029225985
0.0028989645
0.0028584781
0.0028365281
0.0027970094
0.0027771012
0.0027383199
0.0027166886
0.0026742301
0.054775958
0.047087242
0.041213014
0.036587508
0.032859225
0.029792073
0.027229298
0.02505561
0.023192022
0.021575484
0.020162584
0.018915741
0.017809573
0.016820023
0.015931684
0.015128083
0.014399819
0.013734788
0.013127492
0.012568389
0.012054656
0.011578294
0.011138359
0.010727827
0.010347085
0.0099897674
0.0096571998
0.0093434966
0.0090506369
0.0087731094
0.0085133559
0.0082661341
0.0080342845
0.0078126511
0.0076045681
0.0074046825
0.0072170298
0.0070357529
0.0068657895
0.0067005567
0.0065459974
0.0063947029
0.0062536305
0.0061145301
0.0059853255
0.0058569672
0.0057382494
0.0056194164
0.0055100037
0.0053996598
0.0052985443
0.0051957941
0.0051021116
0.0050061795
0.0049191823
0.0048293896
0.00474844
0.0046641696
0.0045887428
0.0045094199
0.0044390743
0.0043641993
0.0042985099
0.0042276889
0.0041662462
0.0040991283
0.0040415968
0.0039778451
0.0039239227
0.0038632539
0.0038126765
0.0037547913
0.0037073736
0.0036519915
0.0036075361
0.0035544353
0.0035127583
0.0034617408
0.0034226544
0.0033735629
0.0033369033
0.0032895768
0.0032551903
0.0032095018
0.0031772475
0.0031330616
0.0031028345
0.0030599943
0.0030317473
0.0029900794
0.0029637456
0.0029231575
0.0028986017
0.0028590414
0.0028361835
0.0027975185
0.0027758878
0.0027381941
0.0027220521
0.0026696037
0.054776049
0.047087116
0.041213146
0.036587332
0.032859394
0.029791837
0.027229502
0.025055312
0.023192251
0.021575132
0.020162819
0.018915356
0.017809788
0.016819633
0.015931852
0.015127711
0.014399926
0.013734443
0.013127539
0.012568074
0.012054652
0.01157801
0.01113831
0.010727583
0.010347001
0.0099895703
0.0096570966
0.0093433507
0.0090505348
0.0087730221
0.0085132696
0.0082661181
0.0080342229
0.0078127154
0.0076045396
0.0074048251
0.0072170411
0.0070359637
0.0068658402
0.006700822
0.0065460811
0.0063950052
0.0062537414
0.0061148482
0.0059854609
0.0058572809
0.0057384079
0.0056197102
0.0055101847
0.005399923
0.0052987488
0.0051960172
0.0051023449
0.0050063506
0.0049194551
0.0048294979
0.0047487582
0.0046642184
0.004589093
0.0045094331
0.004439432
0.0043641918
0.0042988788
0.0042276407
0.0041666517
0.0040990254
0.0040420432
0.0039776859
0.0039244209
0.0038630295
0.0038132151
0.0037545402
0.003707909
0.0036517399
0.0036080636
0.0035541856
0.0035132749
0.0034614848
0.0034231822
0.0033732831
0.0033374466
0.0032892669
0.0032557705
0.0032091397
0.0031778749
0.003132649
0.0031034915
0.0030595786
0.0030323657
0.0029897149
0.002964312
0.0029228143
0.0028991781
0.0028586887
0.002836738
0.0027972167
0.0027773071
0.0027385227
0.0027168905
0.0026744284
0.054776109
0.047087029
0.04121323
0.036587214
0.03285949
0.029791694
0.027229588
0.025055153
0.023192308
0.021574968
0.020162834
0.018915197
0.017809749
0.016819483
0.015931757
0.015127571
0.014399778
0.013734308
0.013127354
0.012567929
0.012054454
0.011577842
0.011138125
0.010727387
0.01034684
0.0099893653
0.00965696
0.0093431641
0.009050425
0.0087728756
0.008513201
0.0082660229
0.0080342128
0.0078126802
0.0076045962
0.0074048552
0.0072171654
0.0070360534
0.0068660287
0.0067009567
0.0065463231
0.0063951703
0.0062540193
0.006115032
0.0059857569
0.0058574748
0.0057387057
0.0056199122
0.0055104677
0.0054001372
0.0052990018
0.0051962508
0.0051025547
0.0050066145
0.0049196086
0.0048298032
0.0047488489
0.0046645633
0.0045891338
0.0045097955
0.0044394471
0.0043645581
0.0042988656
0.0042280317
0.0041665866
0.0040994566
0.0040419232
0.0039781609
0.0039242365
0.0038635577
0.0038129788
0.0037550841
0.0037076646
0.0036522743
0.0036078174
0.003554709
0.0035130307
0.0034620062
0.0034229183
0.0033738198
0.0033371586
0.0032898258
0.0032554382
0.003209744
0.003177489
0.0031332981
0.0031030705
0.0030602256
0.0030319778
0.0029903055
0.002963971
0.0029233789
0.0028988225
0.0028592587
0.0028364002
0.0027977322
0.0027761005
0.0027384036
0.0027222602
0.0026698079
0.054775985
0.047087181
0.041213092
0.036587343
0.032859369
0.029791755
0.027229518
0.025055105
0.023192319
0.021574782
0.020162943
0.01891486
0.017809958
0.016819001
0.015932047
0.015126971
0.014400116
0.013733634
0.013127692
0.012567237
0.012054743
0.011577186
0.011138326
0.010726815
0.010346936
0.0099889034
0.0096569589
0.0093428236
0.0090503586
0.0087726522
0.0085131155
0.0082659059
0.0080341515
0.0078126629
0.007604585
0.0074049359
0.0072172105
0.0070362263
0.0068661254
0.0067012046
0.0065464612
0.0063954696
0.0062541864
0.0061153584
0.0059859438
0.0058578044
0.00573891
0.0056202243
0.0055106894
0.0054004191
0.00529924
0.0051964961
0.0051028125
0.005006814
0.0049198978
0.0048299417
0.0047491816
0.0046646364
0.0045895005
0.0045098265
0.0044398208
0.004364568
0.0042992479
0.0042280009
0.0041670048
0.0040993683
0.0040423815
0.0039780145
0.003924745
0.0038633447
0.0038135276
0.0037548426
0.0037082094
0.0036520311
0.0036083531
0.0035544663
0.003513555
0.003461757
0.0034234535
0.0033735467
0.0033377097
0.0032895229
0.003256026
0.0032093892
0.0031781245
0.0031328937
0.0031037363
0.0030598188
0.0030326057
0.0029899506
0.002964547
0.002923045
0.0028994079
0.0028589146
0.0028369631
0.002797438
0.0027775273
0.0027387389
0.0027171049
0.0026746395
0.05477596
0.047087208
0.041213054
0.03658737
0.032859308
0.029791779
0.027229426
0.025055122
0.023192193
0.021574786
0.020162782
0.018914847
0.01780976
0.016818968
0.015931813
0.015126916
0.014399846
0.013733554
0.013127392
0.012567128
0.012054425
0.011577043
0.011138009
0.010726626
0.010346653
0.0099886612
0.0096567409
0.0093425434
0.0090502106
0.0087723842
0.0085130221
0.0082657103
0.0080341057
0.0078125736
0.0076046012
0.0074049536
0.0072173051
0.0070363334
0.0068663015
0.0067013762
0.0065467079
0.0063956792
0.0062544832
0.0061155855
0.0059862678
0.005858035
0.0057392427
0.0056204502
0.0055110168
0.0054006394
0.0052995516
0.0051967132
0.005103102
0.0050070297
0.0049201599
0.0048301611
0.0047494116
0.0046648609
0.0045897075
0.0045100404
0.0044400267
0.0043647584
0.0042994511
0.0042281858
0.0041671884
0.0040995509
0.0040425604
0.0039781802
0.0039249188
0.0038635097
0.0038136883
0.0037549995
0.0037083702
0.0036521812
0.003608502
0.0035546133
0.0035137028
0.0034618963
0.0034235938
0.0033736853
0.003337849
0.0032896551
0.0032561588
0.0032095195
0.0031782556
0.0031330191
0.0031038619
0.0030599422
0.0030327303
0.0029900713
0.0029646667
0.0029231621
0.0028995251
0.0028590293
0.0028370765
0.0027975493
0.002777638
0.0027388483
0.0027172126
0.002674746
0.054776044
0.047087082
0.041213194
0.036587173
0.032859502
0.029791501
0.027229667
0.02505476
0.023192468
0.021574346
0.020163076
0.018914334
0.017810065
0.016818385
0.015932123
0.015126266
0.014400153
0.013732849
0.013127677
0.012566398
0.012054652
0.011576335
0.011138141
0.010725992
0.01034666
0.0099881453
0.0096566196
0.0093421681
0.0090499971
0.0087721459
0.0085127844
0.0082655897
0.0080339175
0.0078125543
0.007604513
0.0074050306
0.0072173296
0.0070365096
0.0068664124
0.0067016516
0.0065468645
0.006396037
0.006254658
0.0061159911
0.0059864493
0.0058584542
0.0057394261
0.0056208595
0.0055112036
0.0054010205
0.005299749
0.0051970523
0.0051033144
0.0050073222
0.0049203874
0.0048304105
0.00474965
0.0046650809
0.004589941
0.0045102538
0.0044402376
0.0043649732
0.0042996483
0.0042283847
0.004167387
0.0040997373
0.0040427459
0.0039783674
0.0039250964
0.0038636834
0.0038138648
0.0037551698
0.003708535
0.0036523454
0.0036086669
0.0035547707
0.0035138586
0.0034620516
0.003423749
0.0033738342
0.0033379974
0.0032898023
0.003256306
0.0032096611
0.0031783966
0.0031331578
0.0031040013
0.0030600771
0.0030328645
0.0029902029
0.002964799
0.0029232912
0.002899653
0.0028591541
0.0028372009
0.0027976713
0.002777759
0.0027389667
0.0027173299
0.0026748611
0.054776075