/*--------------------------------*- C++ -*----------------------------------*\
| =========                 |                                                 |
| \\      /  F ield         | OpenFOAM: The Open Source CFD Toolbox           |
|  \\    /   O peration     | Version:  2406                                  |
|   \\  /    A nd           | Website:  www.openfoam.com                      |
|    \\/     M anipulation  |                                                 |
\*---------------------------------------------------------------------------*/
FoamFile
{
    version     2.0;
    format      ascii;
    arch        "LSB;label=32;scalar=64";
    class       volScalarField;
    location    "500";
    object      nut;
}
// * * * * * * * * * * * * * * * * * * * * * * * * * * * * * * * * * * * * * //

dimensions      [0 2 -1 0 0 0 0];

internalField   nonuniform List<scalar> 
16045
(
0.00014889201
0.00014712738
0.00014558747
0.000144219
0.00014299631
0.00014188459
0.00014087584
0.00013994277
0.00013908706
0.00013828499
0.00013754368
0.00013684159
0.00013618877
0.00013556529
0.00013498294
0.00013442262
0.00013389788
0.00013338909
0.00013291257
0.0001324463
0.0001320109
0.00013158013
0.00013118027
0.00013077952
0.00013041072
0.00013003555
0.00012969424
0.00012934098
0.00012902428
0.00012868986
0.00012839534
0.00012807736
0.00012780275
0.00012749943
0.00012724255
0.00012695261
0.00012671144
0.00012643385
0.0001262067
0.00012594039
0.00012572603
0.00012546987
0.00012526739
0.00012502033
0.0001248288
0.0001245902
0.00012440849
0.00012417807
0.00012400496
0.00012378258
0.00012361697
0.0001234025
0.00012324329
0.00012303708
0.00012288215
0.00012268654
0.00012253134
0.00012235043
0.00012219173
0.00012202364
0.00012186821
0.00012170201
0.00012155755
0.00012139343
0.00012125058
0.00012109767
0.00012095637
0.00012080363
0.00012067374
0.00012052291
0.00012039326
0.00012024902
0.00012012696
0.00011998109
0.00011986208
0.00011972406
0.00011960891
0.00011946874
0.0001193593
0.0001192244
0.00011911911
0.00011898118
0.00011888266
0.00011874736
0.00011865518
0.00011851563
0.00011842973
0.00011829217
0.00011821152
0.00011807393
0.00011799484
0.00011785961
0.00011778646
0.00011765041
0.00011758078
0.00011744558
0.00011739914
0.00011725931
0.0001170769
0.00011708394
0.00014889219
0.00014712712
0.00014558765
0.00014421871
0.00014299647
0.0001418843
0.00014087597
0.00013994248
0.00013908714
0.00013828475
0.00013754371
0.00013684141
0.00013618873
0.00013556519
0.00013498281
0.00013442265
0.00013389764
0.00013338929
0.00013291216
0.0001324467
0.00013201029
0.00013158076
0.00013117946
0.00013078039
0.00013040966
0.00013003671
0.00012969288
0.00012934248
0.00012902256
0.00012869174
0.00012839329
0.00012807949
0.00012780059
0.00012750151
0.00012724065
0.00012695425
0.00012671016
0.0001264348
0.00012620611
0.00012594076
0.00012572589
0.00012547
0.00012526733
0.0001250205
0.00012482872
0.00012459038
0.00012440848
0.00012417817
0.00012400503
0.00012378266
0.00012361704
0.00012340262
0.00012324333
0.0001230372
0.0001228822
0.00012268665
0.00012253142
0.00012235052
0.00012219183
0.00012202371
0.00012186829
0.00012170211
0.00012155759
0.00012139353
0.00012125065
0.00012109772
0.00012095643
0.00012080372
0.00012067376
0.00012052297
0.00012039331
0.00012024907
0.00012012697
0.00011998114
0.00011986213
0.00011972409
0.00011960893
0.00011946877
0.00011935934
0.00011922439
0.00011911911
0.00011898117
0.00011888268
0.00011874731
0.00011865515
0.00011851555
0.0001184297
0.00011829205
0.00011821141
0.00011807374
0.00011799468
0.00011785936
0.00011778621
0.00011765005
0.00011758042
0.00011744511
0.00011739865
0.00011725869
0.00011707626
0.00011708321
0.00014889213
0.00014712721
0.00014558759
0.00014421878
0.00014299645
0.00014188431
0.00014087603
0.00013994237
0.00013908734
0.00013828447
0.00013754408
0.00013684095
0.00013618928
0.00013556459
0.00013498346
0.00013442201
0.00013389826
0.00013338874
0.00013291265
0.0001324463
0.00013201066
0.00013158044
0.0001311798
0.00013078006
0.00013041004
0.00013003635
0.00012969327
0.00012934213
0.00012902293
0.00012869142
0.00012839364
0.00012807923
0.00012780084
0.00012750145
0.0001272406
0.00012695464
0.00012670956
0.00012643582
0.00012620488
0.00012594237
0.00012572422
0.00012547188
0.0001252656
0.00012502233
0.00012482709
0.00012459214
0.00012440688
0.00012417996
0.00012400337
0.00012378457
0.00012361513
0.00012340503
0.00012324056
0.00012304077
0.00012287834
0.00012269054
0.00012252879
0.00012235121
0.00012219359
0.00012202082
0.00012187044
0.00012170259
0.00012155498
0.00012139589
0.00012125101
0.00012109514
0.00012095813
0.00012080504
0.00012067121
0.00012052313
0.00012039567
0.00012024777
0.00012012517
0.00011998291
0.00011986332
0.00011972204
0.00011960809
0.0001194707
0.00011935994
0.00011922247
0.00011911846
0.00011898278
0.0001188834
0.00011874583
0.00011865413
0.00011851647
0.00011843074
0.00011829139
0.00011821016
0.00011807359
0.00011799545
0.00011785953
0.00011778547
0.00011764921
0.00011758018
0.0001174451
0.00011739845
0.00011725824
0.00011707573
0.00011708256
0.00014889208
0.00014712727
0.00014558753
0.00014421886
0.00014299638
0.00014188438
0.00014087597
0.00013994244
0.00013908727
0.00013828457
0.00013754395
0.00013684111
0.00013618905
0.00013556483
0.00013498316
0.00013442228
0.00013389796
0.00013338896
0.00013291241
0.00013244647
0.00013201042
0.00013158065
0.00013117948
0.00013078037
0.00013040962
0.00013003675
0.00012969281
0.00012934255
0.0001290225
0.0001286918
0.0001283933
0.00012807951
0.0001278007
0.00012750149
0.0001272408
0.00012695432
0.00012671017
0.00012643515
0.00012620587
0.00012594142
0.00012572548
0.00012547076
0.00012526703
0.00012502111
0.00012482863
0.00012459087
0.00012440846
0.0001241787
0.00012400496
0.00012378324
0.00012361697
0.00012340315
0.00012324331
0.00012303766
0.00012288224
0.00012268701
0.0001225315
0.00012235085
0.0001221918
0.00012202413
0.00012186816
0.0001217024
0.00012155766
0.00012139355
0.00012125072
0.00012109788
0.00012095633
0.00012080373
0.00012067387
0.00012052287
0.0001203932
0.00012024911
0.00012012697
0.00011998094
0.00011986205
0.00011972409
0.00011960883
0.00011946853
0.00011935925
0.00011922433
0.00011911898
0.00011898089
0.00011888254
0.00011874718
0.000118655
0.00011851524
0.00011842947
0.00011829182
0.00011821122
0.00011807339
0.00011799434
0.00011785897
0.00011778588
0.0001176496
0.00011757995
0.00011744452
0.00011739805
0.00011725797
0.00011707553
0.0001170824
0.00014889228
0.00014712698
0.0001455878
0.00014421849
0.00014299671
0.00014188398
0.0001408763
0.00013994205
0.00013908758
0.00013828422
0.00013754419
0.00013684085
0.00013618917
0.0001355647
0.00013498314
0.00013442228
0.00013389781
0.00013338907
0.00013291217
0.00013244664
0.00013201015
0.00013158083
0.00013117919
0.00013078059
0.00013040929
0.00013003704
0.00012969239
0.00012934297
0.00012902195
0.00012869239
0.0001283926
0.00012808027
0.00012779985
0.00012750241
0.00012723987
0.00012695533
0.0001267092
0.00012643625
0.00012620481
0.00012594268
0.00012572425
0.00012547227
0.00012526557
0.00012502283
0.00012482705
0.00012459267
0.00012440686
0.00012418051
0.00012400335
0.00012378514
0.00012361509
0.00012340558
0.00012324055
0.00012304126
0.00012287836
0.00012269096
0.00012252886
0.00012235153
0.00012219369
0.00012202108
0.00012187051
0.00012170283
0.00012155504
0.00012139606
0.00012125108
0.00012109527
0.00012095816
0.00012080514
0.00012067124
0.00012052315
0.00012039567
0.00012024779
0.00012012514
0.00011998285
0.00011986329
0.00011972197
0.00011960801
0.00011947057
0.00011935987
0.00011922234
0.00011911833
0.0001189826
0.0001188833
0.00011874566
0.00011865399
0.00011851626
0.0001184306
0.0001182912
0.00011821
0.00011807336
0.00011799527
0.00011785931
0.00011778528
0.00011764895
0.00011757994
0.00011744479
0.00011739814
0.00011725785
0.00011707533
0.0001170821
0.00014889218
0.00014712714
0.00014558764
0.00014421871
0.00014299649
0.00014188422
0.00014087609
0.00013994224
0.00013908746
0.00013828424
0.0001375443
0.00013684057
0.00013618964
0.00013556402
0.00013498401
0.00013442124
0.00013389891
0.00013338795
0.00013291311
0.00013244588
0.00013201049
0.00013158084
0.00013117867
0.00013078139
0.00013040808
0.00013003829
0.00012969095
0.00012934424
0.00012902061
0.00012869348
0.00012839144
0.00012808123
0.00012779879
0.00012750332
0.00012723889
0.00012695615
0.00012670846
0.00012643674
0.00012620455
0.00012594269
0.0001257245
0.00012547192
0.00012526608
0.00012502245
0.00012482753
0.0001245924
0.00012440733
0.00012418021
0.00012400398
0.00012378459
0.0001236162
0.00012340429
0.0001232428
0.00012303855
0.00012288199
0.00012268761
0.00012253153
0.00012235117
0.00012219206
0.00012202429
0.00012186842
0.00012170266
0.00012155777
0.00012139383
0.00012125092
0.000121098
0.00012095656
0.00012080395
0.00012067398
0.00012052304
0.00012039345
0.00012024923
0.00012012709
0.00011998114
0.00011986224
0.00011972415
0.00011960896
0.00011946869
0.0001193594
0.00011922437
0.0001191191
0.000118981
0.00011888266
0.00011874719
0.00011865507
0.0001185153
0.00011842955
0.0001182918
0.00011821122
0.00011807337
0.00011799437
0.00011785892
0.00011778583
0.00011764949
0.00011757986
0.00011744439
0.0001173979
0.00011725776
0.00011707531
0.00011708215
0.00014889231
0.00014712693
0.00014558791
0.00014421834
0.00014299696
0.00014188364
0.00014087681
0.00013994139
0.0001390885
0.00013828304
0.00013754576
0.00013683893
0.00013619155
0.00013556197
0.00013498624
0.00013441903
0.00013390112
0.00013338601
0.0001329148
0.0001324447
0.00013201124
0.00013158072
0.00013117827
0.00013078245
0.00013040654
0.00013004043
0.00012968847
0.00012934712
0.00012901766
0.00012869658
0.00012838852
0.0001280841
0.00012779627
0.0001275057
0.00012723693
0.00012695791
0.00012670716
0.00012643789
0.00012620379
0.00012594342
0.00012572402
0.00012547247
0.00012526572
0.00012502289
0.00012482728
0.00012459274
0.00012440716
0.00012418048
0.00012400388
0.0001237848
0.00012361615
0.00012340446
0.00012324278
0.00012303869
0.00012288202
0.00012268773
0.0001225316
0.00012235128
0.00012219213
0.00012202444
0.00012186845
0.00012170285
0.00012155781
0.00012139402
0.00012125099
0.00012109818
0.00012095663
0.00012080414
0.00012067407
0.00012052321
0.00012039354
0.00012024941
0.0001201272
0.00011998129
0.00011986236
0.0001197243
0.00011960908
0.00011946882
0.00011935951
0.00011922448
0.00011911919
0.00011898111
0.00011888274
0.00011874727
0.00011865512
0.00011851535
0.00011842958
0.00011829183
0.00011821122
0.00011807336
0.00011799433
0.00011785886
0.00011778575
0.0001176494
0.00011757974
0.00011744424
0.00011739774
0.00011725757
0.00011707513
0.0001170819
0.00014889239
0.00014712681
0.00014558805
0.00014421816
0.00014299716
0.00014188339
0.00014087706
0.00013994108
0.00013908879
0.00013828271
0.00013754603
0.00013683865
0.00013619175
0.00013556178
0.00013498636
0.00013441891
0.00013390123
0.00013338581
0.00013291508
0.00013244425
0.00013201182
0.00013157997
0.00013117912
0.00013078153
0.00013040741
0.00013003964
0.00012968906
0.00012934673
0.00012901781
0.00012869664
0.00012838832
0.00012808443
0.00012779594
0.0001275061
0.00012723666
0.00012695826
0.00012670704
0.00012643806
0.00012620398
0.00012594327
0.00012572461
0.00012547202
0.00012526654
0.0001250224
0.00012482804
0.00012459241
0.00012440773
0.00012418038
0.00012400421
0.00012378501
0.00012361608
0.00012340519
0.00012324205
0.00012304021
0.00012288033
0.00012269032
0.00012252873
0.00012235507
0.0001221881
0.00012202922
0.0001218636
0.0001217083
0.00012155226
0.00012140035
0.00012124421
0.00012110605
0.00012094804
0.00012081394
0.00012066345
0.00012053497
0.00012038127
0.00012026223
0.00012011439
0.00011999426
0.0001198495
0.00011973735
0.000119596
0.00011948229
0.00011934569
0.00011923893
0.00011910426
0.00011899687
0.00011886607
0.00011876519
0.00011863612
0.00011853547
0.00011840898
0.0001183124
0.00011819153
0.00011809221
0.00011797624
0.00011787719
0.00011776678
0.00011766837
0.00011756122
0.0001174614
0.0001173422
0.00011724797
0.00011730208
0.00011687509
0.00014889244
0.00014712674
0.00014558813
0.00014421804
0.00014299729
0.00014188322
0.00014087725
0.00013994085
0.00013908902
0.00013828244
0.00013754627
0.00013683839
0.00013619194
0.00013556158
0.00013498646
0.00013441876
0.00013390131
0.00013338559
0.00013291534
0.00013244375
0.00013201243
0.00013157908
0.00013118007
0.00013078043
0.0001304084
0.00013003877
0.00012968959
0.00012934659
0.00012901746
0.00012869752
0.00012838698
0.00012808628
0.00012779382
0.00012750861
0.00012723412
0.00012696107
0.00012670443
0.0001264408
0.00012620171
0.00012594547
0.00012572313
0.00012547336
0.00012526593
0.00012502306
0.00012482788
0.0001245929
0.00012440761
0.00012418089
0.0001240041
0.00012378546
0.00012361606
0.00012340557
0.00012324206
0.00012304059
0.00012288034
0.00012269065
0.00012252881
0.00012235531
0.00012218824
0.00012202943
0.00012186372
0.00012170855
0.00012155234
0.00012140058
0.00012124434
0.00012110622
0.00012094818
0.00012081414
0.00012066357
0.00012053512
0.00012038144
0.00012026238
0.00012011452
0.00011999441
0.00011984966
0.00011973748
0.00011959613
0.00011948245
0.00011934585
0.00011923905
0.0001191044
0.00011899703
0.00011886623
0.00011876532
0.00011863626
0.00011853561
0.00011840914
0.00011831253
0.00011819167
0.00011809234
0.00011797639
0.00011787731
0.0001177669
0.00011766847
0.00011756133
0.00011746149
0.00011734228
0.00011724801
0.00011730214
0.00011687515
0.00014889209
0.00014712727
0.00014558751
0.00014421885
0.00014299637
0.00014188431
0.00014087604
0.00013994219
0.00013908757
0.00013828397
0.00013754465
0.00013684001
0.00013619025
0.00013556319
0.00013498484
0.00013442017
0.00013389995
0.00013338663
0.00013291442
0.00013244426
0.00013201209
0.00013157898
0.00013118036
0.00013077975
0.00013040918
0.00013003778
0.00012969049
0.00012934576
0.000129018
0.00012869726
0.00012838693
0.00012808664
0.00012779332
0.00012750933
0.00012723346
0.00012696189
0.00012670376
0.00012644169
0.00012620101
0.00012594648
0.00012572238
0.00012547442
0.00012526527
0.00012502396
0.00012482751
0.00012459351
0.00012440756
0.00012418125
0.00012400429
0.00012378557
0.00012361659
0.00012340523
0.0001232432
0.00012303949
0.00012288237
0.00012268856
0.00012253191
0.00012235209
0.00012219245
0.00012202518
0.00012186883
0.00012170348
0.00012155825
0.00012139457
0.00012125143
0.00012109869
0.00012095706
0.00012080461
0.00012067449
0.00012052365
0.00012039396
0.0001202498
0.00012012758
0.00011998166
0.00011986275
0.00011972464
0.00011960943
0.00011946914
0.00011935988
0.00011922479
0.00011911953
0.0001189814
0.00011888308
0.00011874756
0.00011865544
0.00011851563
0.00011842992
0.00011829212
0.00011821155
0.00011807366
0.00011799468
0.0001178592
0.00011778611
0.00011764974
0.00011758011
0.0001174446
0.00011739812
0.00011725794
0.0001170755
0.0001170823
0.00014889212
0.0001471272
0.00014558765
0.00014421866
0.00014299666
0.00014188397
0.0001408765
0.00013994167
0.0001390882
0.00013828328
0.00013754542
0.00013683918
0.00013619113
0.00013556226
0.00013498576
0.00013441923
0.00013390081
0.00013338581
0.00013291507
0.00013244371
0.00013201238
0.00013157885
0.00013118019
0.00013078008
0.00013040864
0.00013003835
0.00012968993
0.00012934616
0.00012901783
0.00012869723
0.00012838718
0.00012808639
0.00012779361
0.00012750933
0.0001272334
0.00012696235
0.00012670338
0.00012644242
0.00012620055
0.00012594728
0.00012572193
0.00012547524
0.00012526487
0.00012502477
0.00012482716
0.00012459432
0.00012440715
0.00012418224
0.00012400364
0.00012378693
0.00012361543
0.00012340732
0.00012324099
0.0001230429
0.00012287892
0.00012269246
0.00012252954
0.00012235291
0.00012219441
0.00012202243
0.00012187123
0.00012170412
0.00012155583
0.00012139721
0.00012125194
0.00012109634
0.00012095902
0.00012080616
0.00012067213
0.00012052412
0.00012039656
0.00012024873
0.00012012602
0.00011998374
0.00011986418
0.00011972283
0.00011960888
0.00011947139
0.00011936073
0.00011922311
0.00011911917
0.00011898333
0.00011888409
0.00011874635
0.00011865474
0.00011851691
0.00011843129
0.0001182918
0.00011821065
0.00011807391
0.00011799586
0.0001178598
0.00011778579
0.00011764938
0.00011758037
0.00011744514
0.00011739848
0.0001172581
0.00011707559
0.00011708227
0.00014889205
0.00014712731
0.00014558752
0.00014421885
0.00014299641
0.00014188431
0.00014087605
0.00013994227
0.00013908744
0.0001382842
0.00013754435
0.00013684036
0.00013618988
0.0001355635
0.00013498455
0.00013442035
0.00013389975
0.00013338681
0.000132914
0.00013244489
0.00013201096
0.00013158053
0.0001311782
0.00013078234
0.0001304062
0.00013004087
0.00012968751
0.0001293484
0.00012901593
0.00012869885
0.00012838596
0.00012808748
0.00012779277
0.00012751034
0.00012723248
0.00012696364
0.00012670221
0.00012644396
0.00012619931
0.00012594877
0.00012572098
0.00012547638
0.0001252644
0.00012502544
0.00012482716
0.00012459466
0.00012440742
0.00012418243
0.00012400402
0.00012378701
0.00012361603
0.00012340701
0.00012324219
0.0001230419
0.00012288058
0.00012269185
0.00012252918
0.00012235631
0.00012218878
0.00012203032
0.00012186426
0.00012170945
0.00012155284
0.00012140141
0.00012124493
0.00012110695
0.00012094877
0.00012081489
0.00012066416
0.00012053579
0.00012038207
0.00012026304
0.00012011513
0.00011999506
0.00011985031
0.0001197381
0.00011959676
0.00011948307
0.0001193465
0.00011923964
0.00011910502
0.00011899761
0.00011886686
0.00011876588
0.00011863685
0.00011853616
0.00011840973
0.00011831306
0.00011819222
0.00011809284
0.00011797692
0.00011787782
0.00011776743
0.00011766897
0.00011756184
0.00011746198
0.00011734279
0.00011724852
0.00011730262
0.00011687563
0.00014889201
0.00014712736
0.00014558746
0.00014421893
0.00014299632
0.00014188443
0.0001408759
0.00013994246
0.00013908718
0.00013828455
0.00013754384
0.00013684105
0.00013618894
0.00013556467
0.00013498311
0.00013442197
0.00013389797
0.00013338858
0.0001329123
0.00013244633
0.00013200983
0.00013158124
0.00013117785
0.00013078231
0.00013040643
0.00013004054
0.00012968774
0.00012934839
0.00012901569
0.00012869939
0.00012838533
0.00012808823
0.00012779225
0.00012751083
0.00012723237
0.00012696389
0.00012670218
0.00012644447
0.00012619889
0.00012594985
0.00012572009
0.00012547786
0.00012526335
0.00012502692
0.00012482642
0.00012459565
0.0001244073
0.00012418287
0.00012400427
0.00012378739
0.0001236161
0.0001234077
0.00012324204
0.00012304259
0.00012288062
0.00012269228
0.00012252942
0.00012235661
0.00012218914
0.00012203048
0.00012186469
0.00012170969
0.00012155306
0.00012140181
0.00012124519
0.00012110715
0.00012094915
0.0001208152
0.00012066432
0.00012053611
0.00012038245
0.00012026324
0.00012011535
0.00011999543
0.00011985062
0.00011973827
0.00011959703
0.00011948342
0.00011934679
0.00011923981
0.00011910529
0.00011899794
0.00011886715
0.00011876605
0.00011863708
0.00011853644
0.00011841001
0.00011831323
0.00011819238
0.00011809304
0.00011797716
0.000117878
0.00011776757
0.00011766909
0.00011756198
0.00011746211
0.00011734289
0.00011724858
0.00011730268
0.00011687568
0.00014889167
0.00014712787
0.00014558687
0.0001442197
0.00014299548
0.00014188542
0.00014087485
0.0001399436
0.00013908603
0.00013828573
0.00013754267
0.00013684221
0.00013618774
0.00013556588
0.00013498179
0.00013442331
0.00013389652
0.00013338993
0.00013291101
0.00013244725
0.00013200921
0.00013158122
0.00013117839
0.00013078101
0.00013040825
0.0001300381
0.00012969049
0.0001293454
0.00012901865
0.00012869659
0.00012838794
0.00012808589
0.00012779465
0.00012750849
0.00012723518
0.00012696104
0.00012670561
0.00012644129
0.00012620241
0.00012594707
0.00012572296
0.00012547605
0.00012526518
0.00012502631
0.00012482706
0.00012459625
0.00012440691
0.00012418429
0.0001240034
0.00012378901
0.00012361521
0.00012340941
0.00012324085
0.00012304482
0.00012287904
0.00012269405
0.00012252999
0.00012235419
0.00012219511
0.0001220235
0.00012187203
0.00012170515
0.0001215566
0.00012139823
0.00012125273
0.00012109729
0.00012095984
0.00012080708
0.0001206729
0.00012052504
0.00012039734
0.00012024959
0.00012012681
0.00011998461
0.00011986495
0.00011972364
0.00011960967
0.00011947219
0.00011936149
0.00011922387
0.00011911993
0.00011898407
0.00011888481
0.00011874704
0.00011865543
0.00011851757
0.00011843193
0.00011829239
0.00011821125
0.0001180745
0.00011799644
0.00011786035
0.00011778634
0.00011764993
0.00011758092
0.00011744567
0.000117399
0.00011725861
0.00011707612
0.00011708278
0.0001488917
0.00014712785
0.00014558683
0.00014421975
0.00014299532
0.00014188559
0.00014087456
0.00013994387
0.00013908565
0.00013828603
0.00013754231
0.0001368424
0.00013618754
0.00013556586
0.00013498181
0.00013442304
0.00013389677
0.00013338947
0.00013291138
0.00013244674
0.00013200958
0.00013158077
0.00013117867
0.0001307807
0.00013040843
0.00013003789
0.00012969063
0.00012934528
0.0001290187
0.00012869675
0.00012838763
0.00012808668
0.00012779364
0.00012751014
0.00012723346
0.00012696333
0.00012670361
0.0001264437
0.00012620065
0.00012594912
0.0001257218
0.00012547746
0.00012526482
0.00012502698
0.00012482739
0.00012459651
0.0001244074
0.00012418469
0.00012400358
0.00012378982
0.00012361497
0.00012341065
0.00012324012
0.0001230467
0.00012287748
0.00012269694
0.00012252731
0.0001223582
0.00012219137
0.00012202846
0.00012186744
0.00012171083
0.00012155128
0.0001214048
0.0001212462
0.0001211054
0.0001209515
0.00012081711
0.00012066259
0.00012053698
0.00012038536
0.00012026261
0.00012011432
0.00011999775
0.00011985237
0.00011973688
0.00011959689
0.00011948582
0.00011934792
0.00011923848
0.00011910526
0.00011899998
0.00011886836
0.00011876509
0.00011863668
0.00011853782
0.00011841155
0.0001183131
0.00011819178
0.00011809349
0.00011797853
0.00011787878
0.00011776753
0.000117669
0.00011756252
0.00011746289
0.00011734355
0.00011724903
0.00011730305
0.00011687599
0.00014889229
0.00014712697
0.0001455878
0.00014421847
0.00014299672
0.00014188388
0.00014087638
0.00013994175
0.00013908785
0.00013828357
0.00013754478
0.00013683976
0.00013619011
0.0001355632
0.00013498433
0.00013442052
0.00013389907
0.00013338723
0.00013291337
0.00013244484
0.00013201117
0.00013157934
0.0001311797
0.00013077994
0.00013040868
0.00013003799
0.00012969006
0.00012934611
0.00012901766
0.00012869783
0.00012838664
0.00012808763
0.0001277929
0.00012751105
0.00012723266
0.00012696461
0.00012670243
0.00012644553
0.00012619908
0.00012595137
0.00012572001
0.00012547994
0.00012526301
0.00012502936
0.000124826
0.00012459821
0.000124407
0.00012418533
0.00012400421
0.00012378966
0.00012361616
0.0001234101
0.00012324173
0.00012304552
0.00012287999
0.00012269467
0.00012253091
0.00012235495
0.0001221958
0.00012202443
0.00012187268
0.00012170594
0.00012155738
0.00012139899
0.00012125339
0.00012109816
0.00012096048
0.00012080781
0.00012067363
0.00012052578
0.00012039796
0.00012025028
0.00012012752
0.00011998522
0.00011986555
0.00011972426
0.00011961032
0.0001194727
0.00011936203
0.0001192244
0.0001191205
0.0001189845
0.00011888528
0.00011874749
0.00011865594
0.00011851797
0.00011843236
0.00011829279
0.00011821172
0.00011807489
0.00011799684
0.0001178607
0.00011778673
0.00011765028
0.00011758127
0.00011744596
0.00011739929
0.00011725885
0.00011707634
0.000117083
0.00014889251
0.00014712665
0.00014558812
0.00014421806
0.00014299708
0.00014188344
0.00014087672
0.00013994139
0.00013908803
0.00013828341
0.00013754467
0.00013683994
0.00013618957
0.00013556383
0.00013498326
0.00013442166
0.00013389749
0.00013338879
0.00013291144
0.00013244656
0.00013200929
0.00013158073
0.00013117842
0.0001307805
0.00013040839
0.00013003763
0.00012969051
0.00012934546
0.00012901798
0.00012869783
0.00012838608
0.00012808872
0.00012779152
0.00012751272
0.00012723127
0.00012696611
0.00012670149
0.00012644679
0.00012619836
0.00012595269
0.00012571936
0.0001254812
0.00012526267
0.00012503033
0.00012482602
0.00012459893
0.00012440736
0.00012418556
0.00012400533
0.00012378893
0.00012361834
0.00012340835
0.00012324483
0.00012304293
0.00012288372
0.00012269195
0.00012253358
0.00012235489
0.00012219455
0.00012202775
0.00012187079
0.0001217062
0.00012156012
0.00012139705
0.00012125353
0.00012110096
0.00012095909
0.00012080694
0.00012067647
0.00012052578
0.00012039605
0.00012025189
0.00012012954
0.00011998368
0.00011986478
0.00011972652
0.00011961135
0.00011947101
0.00011936181
0.00011922651
0.00011912137
0.00011898312
0.0001188849
0.00011874914
0.00011865711
0.00011851717
0.00011843155
0.00011829356
0.00011821303
0.00011807502
0.00011799612
0.00011786051
0.00011778742
0.00011765092
0.0001175813
0.00011744568
0.00011739916
0.00011725887
0.00011707642
0.00011708312
0.00014889233
0.00014712692
0.00014558779
0.00014421851
0.00014299653
0.00014188413
0.00014087588
0.00013994239
0.00013908682
0.00013828481
0.00013754302
0.00013684172
0.00013618756
0.00013556584
0.00013498114
0.00013442356
0.00013389558
0.00013339034
0.00013290985
0.00013244782
0.00013200782
0.000131582
0.0001311768
0.00013078189
0.0001304068
0.00013003865
0.00012968976
0.00012934517
0.00012901894
0.00012869584
0.00012838855
0.00012808598
0.000127794
0.00012751099
0.00012723231
0.00012696613
0.00012670131
0.00012644754
0.00012619831
0.00012595303
0.00012571998
0.00012548117
0.00012526357
0.00012503027
0.00012482704
0.00012459885
0.00012440826
0.00012418604
0.00012400527
0.00012379061
0.00012361719
0.00012341072
0.00012324342
0.00012304533
0.00012288214
0.0001226949
0.00012253103
0.00012235902
0.00012219086
0.0001220328
0.00012186634
0.00012171201
0.00012155476
0.00012140389
0.00012124702
0.00012110916
0.00012095086
0.00012081718
0.00012066614
0.0001205379
0.00012038423
0.00012026506
0.00012011708
0.00011999706
0.00011985237
0.00011973991
0.00011959867
0.00011948491
0.00011934845
0.0001192413
0.00011910684
0.00011899929
0.00011886867
0.00011876739
0.0001186385
0.00011853765
0.00011841136
0.00011831444
0.00011819368
0.00011809418
0.00011797837
0.00011787913
0.00011776875
0.00011767018
0.0001175631
0.00011746315
0.00011734395
0.00011724958
0.00011730364
0.00011687667
0.0001488926
0.0001471265
0.00014558832
0.00014421777
0.00014299744
0.00014188296
0.00014087726
0.00013994066
0.00013908882
0.00013828237
0.00013754574
0.00013683853
0.00013619095
0.00013556204
0.00013498491
0.00013441957
0.00013389928
0.00013338653
0.00013291324
0.00013244433
0.00013201085
0.00013157882
0.00013117944
0.00013077919
0.0001304088
0.00013003674
0.00012969094
0.00012934407
0.0001290195
0.00012869528
0.00012838875
0.00012808595
0.00012779362
0.00012751192
0.00012723099
0.0001269682
0.00012669918
0.00012645044
0.00012619566
0.00012595661
0.00012571677
0.00012548555
0.00012525966
0.00012503538
0.00012482265
0.00012460429
0.00012440386
0.00012419125
0.00012400139
0.00012379514
0.00012361408
0.00012341449
0.00012324099
0.00012304837
0.00012288072
0.00012269614
0.00012253258
0.00012235597
0.00012219719
0.00012202613
0.0001218733
0.00012170782
0.0001215584
0.00012140011
0.00012125474
0.0001210995
0.00012096132
0.00012080923
0.00012067485
0.00012052678
0.00012039903
0.00012025163
0.00012012853
0.0001199862
0.00011986674
0.00011972548
0.00011961129
0.00011947369
0.00011936322
0.00011922551
0.00011912145
0.00011898544
0.00011888639
0.00011874854
0.00011865688
0.00011851883
0.00011843333
0.00011829374
0.00011821259
0.00011807564
0.00011799762
0.00011786151
0.00011778755
0.00011765101
0.00011758199
0.00011744668
0.0001174
0.00011725954
0.00011707705
0.00011708366
0.00014889275
0.00014712626
0.00014558863
0.00014421735
0.00014299794
0.00014188233
0.00014087796
0.00013993982
0.00013908967
0.00013828139
0.00013754666
0.0001368375
0.00013619181
0.00013556109
0.00013498555
0.00013441888
0.00013389948
0.00013338636
0.00013291277
0.00013244477
0.00013200979
0.00013157959
0.00013117836
0.00013077957
0.0001304084
0.00013003629
0.00012969133
0.00012934313
0.00012902011
0.00012869452
0.00012838914
0.00012808546
0.00012779407
0.00012751143
0.00012723165
0.00012696786
0.00012669975
0.00012645046
0.00012619624
0.00012595655
0.0001257179
0.00012548494
0.00012526154
0.00012503417
0.00012482523
0.00012460239
0.00012440723
0.0001241887
0.00012400516
0.00012379258
0.00012361754
0.00012341246
0.00012324385
0.00012304698
0.00012288268
0.00012269633
0.00012253181
0.00012236016
0.00012219182
0.00012203379
0.00012186727
0.00012171305
0.00012155555
0.00012140491
0.00012124789
0.00012110998
0.00012095175
0.00012081807
0.00012066685
0.0001205387
0.00012038507
0.00012026576
0.00012011778
0.00011999785
0.00011985313
0.00011974054
0.00011959938
0.00011948564
0.00011934914
0.00011924186
0.00011910747
0.00011899993
0.00011886933
0.00011876793
0.00011863913
0.00011853828
0.00011841205
0.00011831502
0.00011819429
0.00011809479
0.00011797905
0.00011787975
0.00011776941
0.00011767083
0.00011756382
0.0001174639
0.00011734473
0.00011725033
0.00011730439
0.0001168774
0.00014889237
0.00014712684
0.00014558802
0.00014421812
0.00014299718
0.00014188314
0.00014087726
0.0001399404
0.00013908936
0.00013828135
0.00013754715
0.00013683639
0.00013619355
0.00013555847
0.00013498895
0.0001344144
0.00013390481
0.00013337984
0.00013292002
0.00013243643
0.00013201856
0.00013157005
0.00013118778
0.00013076993
0.00013041729
0.00013002772
0.00012969859
0.00012933665
0.000129025
0.00012869058
0.0001283917
0.00012808372
0.00012779503
0.00012751103
0.00012723182
0.0001269683
0.00012669935
0.00012645182
0.00012619512
0.00012595885
0.00012571619
0.00012548793
0.00012525939
0.00012503777
0.0001248226
0.00012460648
0.00012440448
0.00012419252
0.00012400323
0.00012379525
0.00012361685
0.00012341415
0.00012324361
0.00012304881
0.00012288207
0.00012269799
0.00012253284
0.00012235811
0.00012219792
0.00012202723
0.00012187483
0.00012170875
0.00012155936
0.0001214016
0.0001212555
0.0001211005
0.00012096248
0.00012081014
0.0001206756
0.00012052788
0.00012039994
0.00012025234
0.0001201294
0.00011998712
0.00011986745
0.00011972611
0.00011961214
0.00011947444
0.00011936388
0.00011922613
0.00011912227
0.00011898615
0.00011888705
0.00011874914
0.00011865765
0.00011851954
0.00011843404
0.00011829438
0.00011821336
0.00011807645
0.00011799845
0.00011786226
0.00011778837
0.00011765185