/*--------------------------------*- C++ -*----------------------------------*\
| =========                 |                                                 |
| \\      /  F ield         | OpenFOAM: The Open Source CFD Toolbox           |
|  \\    /   O peration     | Version:  2406                                  |
|   \\  /    A nd           | Website:  www.openfoam.com                      |
|    \\/     M anipulation  |                                                 |
\*---------------------------------------------------------------------------*/
FoamFile
{
    version     2.0;
    format      ascii;
    arch        "LSB;label=32;scalar=64";
    class       volScalarField;
    location    "500";
    object      omega;
}
// * * * * * * * * * * * * * * * * * * * * * * * * * * * * * * * * * * * * * //

dimensions      [0 0 -1 0 0 0 0];

internalField   nonuniform List<scalar> 
16045
(
367.88984
320.04507
283.08066
253.69542
229.79155
209.97577
193.28779
179.04421
166.74789
156.02486
146.59489
138.23457
130.77686
124.07748
118.03397
112.546
107.5506
102.97302
98.775648
94.899464
91.323575
87.999137
84.9166
82.033933
79.349527
76.826053
74.467488
72.240054
70.151434
68.170916
66.308391
64.53593
62.864716
61.269067
59.761313
58.316997
56.950197
55.636217
54.391951
53.190926
52.053891
50.951382
49.908725
48.892635
47.933515
46.993598
46.10883
45.236345
44.418086
43.605554
42.847049
42.088018
41.383498
40.672172
40.017066
39.347658
38.738915
38.105624
37.540427
36.93977
36.412703
35.844479
35.350089
34.811366
34.349508
33.834891
33.403422
32.913245
32.507442
32.039113
31.659897
31.210302
30.853936
30.423607
30.089465
29.674501
29.361085
28.962327
28.668017
28.28226
28.00645
27.634258
27.375432
27.014232
26.771771
26.421943
26.194947
25.854446
25.641939
25.310832
25.112555
24.789503
24.604292
24.288814
24.116571
23.808039
23.647949
23.34561
23.197287
22.83343
367.88987
320.04498
283.08061
253.69526
229.79138
209.97557
193.2875
179.04398
166.74751
156.02461
146.59446
138.23428
130.7764
124.07716
118.03349
112.54566
107.55011
102.97264
98.775186
94.899054
91.323149
87.998692
84.916219
82.033455
79.349216
76.825516
74.467299
72.239409
70.151428
68.170128
66.308593
64.535021
62.865067
61.268146
59.761677
58.316225
56.950423
55.635709
54.391988
53.190657
52.053827
50.95122
49.908691
48.892478
47.933551
46.993449
46.108893
45.236242
44.418151
43.60549
42.847126
42.087979
41.38358
40.672165
40.01714
39.347684
38.738979
38.105677
37.540484
36.939837
36.41277
35.844538
35.350172
34.811426
34.349584
33.834963
33.4035
32.913308
32.507528
32.039182
31.659973
31.210371
30.854021
30.423674
30.089541
29.674573
29.361166
28.962393
28.66809
28.282332
28.006528
27.634325
27.375502
27.014302
26.771846
26.422011
26.195014
25.854513
25.642011
25.3109
25.112621
24.789567
24.604358
24.28888
24.116637
23.808103
23.648012
23.345673
23.19735
22.833492
367.88991
320.0449
283.08066
253.69514
229.79141
209.97543
193.28749
179.04386
166.74744
156.02456
146.59429
138.23434
130.7761
124.07733
118.03311
112.54587
107.54972
102.97282
98.77487
94.899164
91.322914
87.998768
84.916016
82.033558
79.349008
76.825673
74.467087
72.239622
70.151215
68.17041
66.308364
64.535387
62.864833
61.268558
59.761508
58.316589
56.950416
55.635938
54.392189
53.190751
52.054172
50.95128
49.909051
48.892601
47.933867
46.993627
46.109207
45.236409
44.418513
43.605586
42.84762
42.087846
41.384434
40.671552
40.018468
39.346811
38.740066
38.105658
37.540289
36.940898
36.412372
35.844682
35.351111
34.810977
34.349743
33.835853
33.403242
32.913182
32.508397
32.039306
31.659579
31.210891
30.854646
30.423406
30.089445
29.675236
29.361529
28.962101
28.668128
28.282932
28.006834
27.634112
27.375503
27.014776
26.772213
26.421947
26.194934
25.854785
25.642403
25.311046
25.11258
24.789637
24.604611
24.289134
24.116769
23.808176
23.648116
23.345809
23.197498
22.833653
367.88994
320.04486
283.08067
253.69507
229.79138
209.97535
193.2874
179.04376
166.74729
156.02444
146.59412
138.23416
130.77595
124.07707
118.03298
112.54557
107.54957
102.97256
98.774659
94.898942
91.322676
87.998551
84.915817
82.033307
79.348884
76.825395
74.467032
72.239344
70.151223
68.170146
66.308438
64.535151
62.864953
61.26839
59.761636
58.316525
56.950533
55.635972
54.392313
53.19085
52.054328
50.951415
49.909246
48.892768
47.934085
46.993832
46.109429
45.236657
44.418715
43.605919
42.847695
42.088431
41.384141
40.672633
40.017686
39.348166
38.73951
38.106147
37.541037
36.940255
36.413339
35.844969
35.350666
34.811908
34.35006
33.835388
33.404004
32.913746
32.507956
32.039632
31.660438
31.210767
30.854443
30.424116
30.089963
29.674951
29.361579
28.962815
28.668485
28.282697
28.006921
27.634726
27.375882
27.014656
26.772214
26.422391
26.195384
25.85486
25.642357
25.311257
25.11298
24.789911
24.604692
24.289213
24.116974
23.808437
23.648341
23.345997
23.197671
22.833809
367.88984
320.045
283.08051
253.69522
229.79117
209.97549
193.28714
179.0439
166.747
156.02454
146.59383
138.23421
130.77569
124.07705
118.03277
112.54547
107.54942
102.9724
98.774555
94.898774
91.322589
87.998411
84.915741
82.033202
79.348839
76.825318
74.467048
72.239284
70.151326
68.170095
66.308643
64.535112
62.865253
61.268391
59.761993
58.316608
56.950907
55.636157
54.392695
53.191111
52.054747
50.951707
49.909718
48.893074
47.934592
46.994158
46.109955
45.236986
44.419282
43.606184
42.848403
42.088457
41.385214
40.672176
40.019233
39.347447
38.740804
38.106307
37.540997
36.941544
36.413067
35.845311
35.351787
34.811602
34.350394
33.836464
33.403882
32.913775
32.509013
32.039897
31.660177
31.211458
30.855231
30.42397
30.090008
29.67578
29.362085
28.962639
28.668661
28.283454
28.007363
27.634628
27.376011
27.015275
26.772716
26.422441
26.195421
25.855263
25.642882
25.311522
25.11305
24.790098
24.605069
24.289587
24.117221
23.80862
23.648557
23.346245
23.197931
22.83408
367.88983
320.04501
283.08052
253.69518
229.79119
209.97536
193.2872
179.04368
166.74706
156.02431
146.59379
138.23408
130.77542
124.07716
118.03218
112.54589
107.54854
102.97302
98.773561
94.899367
91.321768
87.998742
84.915279
82.033221
79.348692
76.82519
74.467023
72.239219
70.151277
68.170188
66.30857
64.535319
62.865246
61.268624
59.762124
58.316833
56.951163
55.636421
54.392994
53.19148
52.055041
50.952158
49.910059
48.893517
47.935032
46.994562
46.110458
45.237399
44.419772
43.606672
42.848767
42.089181
41.38521
40.673387
40.018721
39.348949
38.740471
38.106982
37.541913
36.941116
36.414185
35.84578
35.351528
34.812686
34.350871
33.836184
33.404782
32.914493
32.508743
32.040367
31.661166
31.211496
30.85518
30.424804
30.090661
29.67565
29.362269
28.96347
28.669151
28.283363
28.007574
27.635354
27.376515
27.015289
26.772838
26.422995
26.195987
25.855463
25.642958
25.311842
25.113557
24.790484
24.605265
24.289778
24.117533
23.808987
23.648889
23.346539
23.19821
22.83434
367.88984
320.04498
283.08053
253.69514
229.79117
209.97531
193.28712
179.04367
166.74685
156.0244
146.59335
138.23441
130.77464
124.07782
118.03105
112.54682
107.54719
102.97404
98.772259
94.900229
91.320757
87.999267
84.91471
82.03333
79.348631
76.824892
74.467429
72.238649
70.151986
68.169564
66.309379
64.534836
62.866017
61.26838
59.762801
58.316864
56.951722
55.636713
54.393481
53.191927
52.055558
50.952651
49.91065
48.894026
47.935679
46.995086
46.111137
45.237937
44.420458
43.607229
42.849442
42.089752
41.385867
40.673968
40.019349
39.349537
38.741072
38.107567
37.542497
36.941678
36.414767
35.846317
35.352094
34.813213
34.351416
33.836697
33.405312
32.914992
32.509252
32.040857
31.66166
31.21197
30.85566
30.425269
30.091125
29.676101
29.36272
28.963911
28.66959
28.283794
28.008003
27.635774
27.376932
27.0157
26.773247
26.423397
26.196384
25.855856
25.643347
25.312226
25.113937
24.79086
24.605638
24.290146
24.117898
23.809349
23.649248
23.346893
23.198562
22.834686
367.88982
320.04502
283.08045
253.69519
229.79104
209.97539
193.28692
179.04374
166.74659
156.02447
146.59306
138.23441
130.77438
124.07771
118.03085
112.54662
107.54703
102.97384
98.772034
94.900152
91.32038
87.999393
84.914192
82.033615
79.348113
76.825186
74.467103
72.238804
70.151989
68.169535
66.309713
64.534693
62.866601
61.268223
59.763545
58.316772
56.952542
55.636772
54.394261
53.192233
52.056208
50.953213
49.911195
48.89474
47.936205
46.995856
46.11168
45.238725
44.421016
43.608016
42.850016
42.090518
41.386457
40.674699
40.019959
39.350218
38.74171
38.108186
37.543158
36.942264
36.415397
35.84692
35.352674
34.813809
34.351995
33.837251
33.405882
32.915546
32.50979
32.041389
31.662203
31.212485
30.856172
30.42578
30.091633
29.676587
29.36321
28.964399
28.670071
28.284257
28.00847
27.636239
27.37739
27.016144
26.77369
26.42384
26.196823
25.856284
25.643771
25.312648
25.114358
24.791273
24.606046
24.29055
24.118302
23.809747
23.649643
23.347282
23.198948
22.835067
367.88981
320.04505
283.08041
253.69521
229.79096
209.9754
193.28677
179.04376
166.74637
156.02447
146.5928
138.23435
130.77416
124.07752
118.03073
112.54629
107.54698
102.97347
98.771938
94.899919
91.320092
87.999445
84.913663
82.033952
79.34746
76.82565
74.466581
72.239164
70.151834
68.169646
66.310027
64.534553
62.867338
61.26794
59.764585
58.316468
56.953763
55.636559
54.395512
53.192262
52.057305
50.953594
49.912082
48.895389
47.937009
46.996582
46.112523
45.239445
44.421884
43.608751
42.850864
42.091265
41.387294
40.675431
40.020786
39.350942
38.7425
38.108914
37.543907
36.942981
36.416128
35.847605
35.353393
34.814476
34.352679
33.837913
33.406544
32.916176
32.510439
32.042011
31.66282
31.213089
30.856782
30.426366
30.092217
29.677163
29.363784
28.964954
28.670625
28.284806
28.009013
27.636768
27.377916
27.016666
26.774208
26.424347
26.197326
25.856781
25.644266
25.313135
25.11484
24.79175
24.606521
24.291018
24.118765
23.810204
23.650097
23.34773
23.199394
22.835506
367.88988
320.0449
283.08057
253.69496
229.79119
209.97502
193.28708
179.04323
166.74675
156.02379
146.59325
138.23353
130.77467
124.07659
118.03126
112.54532
107.54745
102.97257
98.77227
94.899218
91.3202
87.999044
84.913496
82.033909
79.347059
76.825898
74.466127
72.239512
70.151579
68.169906
66.310126
64.53469
62.867764
61.26806
59.765217
58.316675
56.954531
55.636868
54.396412
53.192638
52.058327
50.954037
49.913152
48.895952
47.938038
46.997279
46.113499
45.240215
44.422845
43.609535
42.851819
42.092051
41.388223
40.676221
40.021681
39.351725
38.743362
38.109691
37.544726
36.943751
36.416916
35.848348
35.354165
34.815192
34.353419
33.838621
33.407252
32.916862
32.511133
32.042678
31.663484
31.213743
30.857433
30.426994
30.092846
29.677783
29.364399
28.965551
28.671221
28.285394
28.009597
27.637338
27.378483
27.017228
26.774765
26.424893
26.197867
25.857318
25.644799
25.313659
25.115358
24.792262
24.607031
24.291523
24.119265
23.810697
23.650586
23.348214
23.199875
22.835979
367.88993
320.04483
283.08059
253.69491
229.79115
209.97498
193.28694
179.04321
166.7465
156.02379
146.59289
138.23356
130.77418
124.07666
118.03066
112.54542
107.54681
102.97265
98.771673
94.899197
91.319759
87.99885
84.913325
82.033511
79.347175
76.825407
74.466391
72.239168
70.151802
68.169885
66.310275
64.534946
62.868009
61.268402
59.765737
58.31701
56.955315
55.637264
54.397339
53.193169
52.059321
50.954709
49.914164
48.896763
47.939027
46.9982
46.114478
45.241164
44.423871
43.610407
42.852989
42.092674
41.389744
40.676351
40.023665
39.351561
38.745109
38.11034
37.545179
36.945467
36.417134
35.849129
35.355716
34.815333
34.354186
33.840097
33.407558
32.917308
32.512572
32.043339
31.663633
31.214807
30.858588
30.427234
30.093269
29.678961
29.365259
28.965743
28.671753
28.286485
28.010377
27.637589
27.378953
27.018169
26.775589
26.425273
26.198231
25.858033
25.64563
25.314233
25.115741
24.792754
24.607707
24.292192
24.119807
23.811174
23.651093
23.348748
23.200418
22.83653
367.88993
320.04483
283.08056
253.69491
229.79108
209.97493
193.28687
179.04301
166.74652
156.02337
146.59304
138.23293
130.77438
124.07596
118.03076
112.54483
107.54669
102.9722
98.77143
94.898756
91.319634
87.998213
84.913521
82.032608
79.347713
76.824387
74.467088
72.238321
70.152427
68.169442
66.310744
64.534923
62.868446
61.268632
59.766348
58.317323
56.956196
55.637626
54.398429
53.193646
52.060491
50.955369
49.915322
48.897599
47.940158
46.999145
46.115606
45.242149
44.424987
43.611458
42.853957
42.093973
41.390304
40.678123
40.023709
39.353588
38.745313
38.11153
37.546595
36.945541
36.418734
35.850069
35.355927
34.816872
34.35511
33.84025
33.408899
32.918436
32.512724
32.044215
31.665024
31.215231
30.858929
30.428449
30.094294
29.679196
29.365811
28.966933
28.672592
28.286741
28.010936
27.638655
27.379788
27.018513
26.776041
26.426151
26.199113
25.858545
25.646017
25.314863
25.116553
24.79344
24.608199
24.292676
24.120411
23.811829
23.651711
23.349324
23.200977
22.837065
367.88993
320.0448
283.08055
253.69487
229.79101
209.97489
193.2867
179.04298
166.74625
156.02329
146.59275
138.23266
130.77425
124.07536
118.03089
112.54386
107.54708
102.971
98.771866
94.897625
91.319846
87.997439
84.913357
82.032287
79.347273
76.824357
74.466691
72.238308
70.152368
68.169328
66.311054
64.534867
62.868927
61.268868
59.766867
58.317861
56.956871
55.638251
54.399447
53.19419
52.06187
50.955846
49.916913
48.89814
47.941735
46.999907
46.116994
45.243159
44.426223
43.612534
42.855216
42.094961
41.3916
40.679091
40.024914
39.354607
38.746424
38.112557
37.547633
36.94658
36.419708
35.851059
35.356922
34.817784
34.356064
33.841189
33.409787
32.919314
32.513639
32.045063
31.665858
31.216086
30.859775
30.429239
30.095097
29.680011
29.366602
28.967683
28.673358
28.287513
28.011683
27.639371
27.380513
27.019245
26.776758
26.42684
26.199801
25.85924
25.646708
25.315532
25.117209
24.794094
24.608856
24.293323
24.121048
23.812456
23.652337
23.349944
23.201595
22.837674
367.89003
320.04463
283.08074
253.69456
229.79127
209.97443
193.287
179.04241
166.7465
156.02267
146.59288
138.23203
130.77429
124.07462
118.03099
112.54286
107.54736
102.96976
98.772259
94.896337
91.320112
87.996436
84.913239
82.031831
79.346676
76.824494
74.465782
72.238827
70.151519
68.169922
66.310574
64.535437
62.86879
61.269649
59.766781
58.319137
56.956671
55.639999
54.399268
53.196139
52.061936
50.957744
49.917341
48.899838
47.942563
47.001317
46.11819
45.244316
44.427629
43.613557
42.856731
42.095778
41.393414
40.679419
40.027184
39.354623
38.748442
38.113384
37.54834
36.948462
36.420162
35.852029
35.358651
34.818134
34.357018
33.842822
33.410285
32.91995
32.51522
32.045896
31.666195
31.217301
30.861073
30.429653
30.095688
29.681324
29.367605
28.968042
28.674042
28.288729
28.012601
27.639777
27.381127
27.020309
26.777708
26.427361
26.200306
25.860082
25.647659
25.316231
25.117724
24.794713
24.60965
24.294108
24.12171
23.813053
23.652962
23.350594
23.202253
22.838336
367.88996
320.04471
283.08066
253.69457
229.79122
209.97429
193.28699
179.04208
166.74652
156.02218
146.59287
138.23145
130.77417
124.07404
118.0307
112.54233
107.54689
102.96927
98.771667
94.895881
91.319478
87.995984
84.912636
82.031408
79.346126
76.824189
74.465274
72.238728
70.151102
68.170009
66.310423
64.535568
62.869119
61.269706
59.767669
58.319164
56.957983
55.64016
54.400794
53.196569
52.063498
50.958511
49.918802
48.900948
47.943891
47.00264
46.119487
45.245658
44.428987
43.614841
42.8581
42.097055
41.394716
40.6807
40.028434
39.355857
38.749672
38.114557
37.54954
36.949588
36.421314
35.853134
35.359738
34.81921
34.358082
33.843833
33.411327
32.920947
32.516204
32.046862
31.667172
31.218231
30.861999
30.430572
30.0966
29.682199
29.36848
28.968913
28.674903
28.289563
28.013433
27.640606
27.381946
27.021106
26.778497
26.428147
26.201087
25.860845
25.648413
25.316982
25.118474
24.795451
24.610379
24.294827
24.122425
23.81376
23.653661
23.351283
23.202937
22.83901
367.8898
320.04495
283.08035
253.6949
229.79072
209.9747
193.28627
179.04258
166.74555
156.02274
146.59167
138.23203
130.7728
124.07457
118.02923
112.54276
107.54539
102.96958
98.770175
94.896074
91.318047
87.996051
84.911382
82.031274
79.345234
76.823772
74.464863
72.238116
70.151091
68.169473
66.310613
64.535371
62.869436
61.269868
59.768241
58.31954
56.958944
55.640651
54.402134
53.197166
52.065128
50.9592
49.920629
48.901746
47.945732
47.003673
46.121122
45.246993
44.430383
43.616328
42.859431
42.098476
41.396084
40.682039
40.029753
39.357188
38.750919
38.115827
37.550787
36.950769
36.422526
35.854288
35.36089
34.820323
34.359206
33.844903
33.412405
32.921993
32.517249
32.047866
31.668186
31.219214
30.862974
30.431523
30.097552
29.683127
29.369399
28.969816
28.675803
28.290445
28.014305
27.641465
27.382801
27.021947
26.779328
26.428967
26.201902
25.861649
25.649208
25.317766
25.119252
24.796221
24.611143
24.295579
24.123172
23.814498
23.654395
23.352007
23.203656
22.839718
367.8897
320.04509
283.08016
253.69506
229.7904
209.97487
193.28581
179.0427
166.74498
156.02275
146.59106
138.23182
130.77224
124.07404
118.02883
112.54184
107.54522
102.96826
98.77022
94.894476
91.318144
87.994488
84.911242
82.030123
79.344637
76.823229
74.463922
72.237993
70.150268
68.169381
66.310379
64.535106
62.86988
61.269649
59.769085
58.319673
56.960009
55.641135
54.403499
53.197813
52.066822
50.959972
49.922499
48.902665
47.947675
47.004684
46.123059
45.248159
44.432085
43.617821
42.860721
42.100337
41.396947
40.684231
40.030239
39.359497
38.751555
38.117359
37.552509
36.951209
36.424462
35.855489
35.361473
34.822138
34.360412
33.84538
33.414026
32.923374
32.517695
32.049023
31.66981
31.219899
30.863596
30.432978
30.098806
29.683622
29.370211
28.971226
28.676863
28.290946
28.015103
27.642742
27.383845
27.02252
26.780014
26.430057
26.202984
25.862372
25.649814
25.318603
25.120257
24.797097
24.611835
24.296266
24.123973
23.815344
23.655204
23.352773
23.204405
22.840441
367.88972
320.04505
283.08015
253.69496
229.79036
209.97466
193.28574
179.04232
166.74493
156.02208
146.59111
138.2308
130.77239
124.07272
118.02896
112.54041
107.54514
102.96688
98.769892
94.893141
91.317744
87.992999
84.911042
82.028385
79.344675
76.821526
74.463857
72.236917
70.149676
68.169331
66.30931
64.535823
62.869028
61.270414
59.76916
58.320141
56.960974
55.641676
54.404765
53.198854
52.068074
50.961454
49.923778
48.904399
47.948951
47.006593
46.124346
45.249986
44.433625
43.619299
42.86252
42.101642
41.398652
40.685651
40.03171
39.360963
38.752961
38.118722
37.553895
36.952524
36.425764
35.85677
35.362745
34.82334
34.361639
33.846559
33.415196
32.924499
32.51884
32.050118
31.670897
31.220965
30.864665
30.434008
30.09983
29.684633
29.371215
28.9722
28.677829
28.291901
28.016051
27.643667
27.384762
27.023427
26.780916
26.430941
26.203859
25.863237
25.650672
25.319447
25.121094
24.797922
24.612655
24.297076
24.124777
23.816137
23.655993
23.353552
23.205179
22.841203
367.88967
320.04511
283.08002
253.69503
229.7901
209.97473
193.28528
179.04241
166.74418
156.02229
146.58992
138.23122
130.77071
124.07332
118.02691
112.54098
107.54296
102.96724
98.767735
94.893256
91.315615
87.992963
84.90896
82.028207
79.342812
76.821138
74.462385
72.236403
70.148578
68.168952
66.308533
64.535712
62.86873
61.270472
59.769552
58.320314
56.962019
55.642063
54.40631
53.199447
52.070072
50.962083
49.926221
48.904942
47.951722
47.007057
46.12725
45.250452
44.436477
43.619831
42.865252
42.102165
41.401364
40.686036
40.034394
39.36145
38.755064
38.120073
37.554817
36.954652
36.426616
35.857941
35.364721
34.824027
34.362795
33.848409
33.415997
32.925347
32.52062
32.051212
31.671477
31.222363
30.866182
30.434667
30.100624
29.686125
29.372436
28.97278
28.678703
28.293299
28.017177
27.644282
27.38556
27.024666
26.782054
26.431656
26.204544
25.864248
25.651801
25.320336
25.121794
24.798717
24.613621
24.298037
24.125617
23.816908
23.656789
23.35437
23.206004
22.84203
367.8897
320.04504
283.08001
253.69495
229.78996
209.97466
193.28493
179.04234
166.74357
156.02221
146.58905
138.23109
130.7696
124.07308
118.02565
112.54052
107.54171
102.96636
98.766691
94.891848
91.314852
87.991171
84.908248
82.026478
79.341819
76.819828
74.461108
72.23549
70.1474
68.168216
66.307797
64.535215
62.86843
61.270433
59.769688
58.320706
56.962746
55.642767
54.407553
53.200542
52.071526
50.963649
49.927691
48.906886
47.9531
47.00933
46.128393
45.253006
44.437405
43.622462
42.866099
42.104752
41.402102
40.688641
40.035005
39.363877
38.756051
38.121587
37.556799
36.955302
36.428544
35.85941
35.36544
34.825869
34.364199
33.849042
33.417648
32.926871
32.521249
32.052424
31.673188
31.223219
30.86691
30.436166
30.101987
29.686762
29.373319
28.974246
28.679873
28.293922
28.018046
27.645611
27.386695
27.025342
26.782808
26.432795
26.205698
25.865063
25.65249
25.321232
25.12286
24.799671
24.614392
24.298789
24.126473
23.817805
23.657649
23.355189
23.206806
22.842806
367.88982
320.04481
283.08025
253.6945
229.79033
209.97389
193.2854
179.04126
166.74403
156.02091
146.58932
138.22975
130.76946
124.07193
118.02482
112.53982
107.53994
102.96634
98.763839
94.892596
91.310974
87.992562
84.903689
82.028145
79.337145
76.821339
74.456928
72.236473
70.144222
68.168566
66.305808
64.53518
62.867482
61.270485
59.769522
58.32114
56.963279
55.643533
54.408801
53.201537
52.073336
50.964819
49.929882
48.908089
47.955611
47.010433
46.131056
45.25413
44.439888
43.623798
42.868267
42.106162
41.404276
40.689658
40.037557
39.364474
38.758439
38.122821
37.557925
36.957541
36.429351
35.860757
35.367477
34.826565
34.365491
33.85096
33.418474
32.92782
32.523105
32.053534
31.673833
31.224693
30.868457
30.436859
30.102859
29.688314
29.374568
28.974876
28.680817
28.295364
28.019191
27.646268
27.387558
27.026631
26.783983
26.433562
26.206454
25.866138
25.653662
25.322158
25.123609
24.800517
24.615401
24.299785
24.127349
23.818618
23.658488
23.356051
23.207677
22.843679
367.88983
320.04476
283.08023
253.69437
229.79026
209.97362
193.28526
179.0408
166.74379
156.02024
146.58895
138.22886
130.76892
124.07081
118.0241
112.53845
107.53906
102.9647
98.762853
94.890598
91.310061
87.990025
84.903116
82.024998
79.336913
76.818021
74.456514
72.233904
70.143022
68.167341
66.303999
64.534994
62.865966
61.2707
59.768964
58.321582
56.96373
55.644281
54.410057
53.202629
52.07511
50.966291
49.93186
48.909855
47.957675
47.012298
46.133126
45.256065
44.441798
43.625822
42.869985
42.108231
41.405723
40.691952
40.038509
39.367009
38.75933
38.124669
37.559833
36.958247
36.431509
35.862162
35.368278
34.828586
34.366874
33.851634
33.420279
32.929353
32.523727
32.054861
31.675603
31.225532
30.869249
30.438459
30.104244
29.688952
29.375522
28.976406
28.681993
28.295996
28.020122
27.647662
27.388711
27.027321
26.784784
26.434756
26.207631
25.866958
25.654372
25.323095
25.124704
24.80148
24.616183
24.300558
24.128234
23.819543
23.659371
23.356888
23.208495
22.844469
367.88986
320.04468
283.08021
253.69428
229.79006
209.97356
193.28476
179.04077
166.74293
156.02021
146.58774
138.22875
130.76742
124.07053
118.0223
112.53805
107.53679
102.96443
98.759814
94.890789
91.306001
87.990863
84.898057
82.026372
79.331316
76.819422
74.451248
72.234646
70.139024
68.166994
66.301803
64.533723
62.865508
61.269186
59.769717
58.320689
56.964968
55.64461
54.411397
53.203989
52.076785
50.967931
49.934152
48.911394
47.960325
47.013803
46.13589
45.257369
44.444803
43.626716
42.8732
42.108825
41.408956
40.692395
40.041562
39.36766
38.761616
38.126275
37.560875
36.960565
36.432565
35.863438
35.370425
34.82945
34.368122
33.853614
33.421253
32.930287
32.525602
32.056113
31.676309
31.226998
30.870891
30.439267
30.105125
29.69051
29.376865
28.977114
28.682949
28.29747
28.021371
27.648413
27.389603
27.028637
26.786028
26.435593
26.208417
25.86804
25.655579
25.324087
25.125509
24.802363
24.617234
24.301611
24.129178
23.820421
23.660265
23.357799
23.209411
22.845386
367.88974
320.04484
283.07995
253.69445
229.78964
209.97364
193.28419
179.04066
166.74226
156.01978
146.58706
138.22783
130.76682
124.06895
118.02196
112.5356
107.53685
102.96099
98.760255
94.886529
91.306488
87.986271
84.898141
82.021867
79.330889
76.815096
74.450547
72.230552
70.138176
68.163626
66.300574
64.531801
62.863834
61.268959
59.768153
58.321626
56.964393
55.645937
54.41228
53.205324
52.078789
50.969459
49.936514
48.91331
47.962648
47.015936
46.138081
45.25966
44.446639
43.629242
42.874616
42.111501
41.410003
40.695198
40.042348
39.370247
38.762834
38.12784
37.563061
36.961359
36.434553
35.865067
35.371281
34.831313
34.369667
33.854368
33.422915
32.931913
32.526373
32.057349
31.678059
31.227985
30.871692
30.440762
30.106556
29.691263
29.377789
28.978573
28.684186
28.298189
28.022273
27.649739
27.39079
27.0294
26.786818
26.436722
26.20958
25.868905
25.656309
25.32499
25.126571
24.803338
24.618047
24.302393
24.130048
23.821333
23.66115
23.35864
23.210234
22.846178
367.88983
320.04466
283.08008
253.69412
229.78973
209.97314
193.28415
179.04002
166.74197
156.01905
146.58637
138.22707
130.76563
124.06817
118.02027
112.53463
107.5349
102.95948
98.758355
94.884234
91.304704
87.983328
84.896193
82.01873
79.328397
76.812191
74.44756
72.227804
70.135322
68.160914
66.298203
64.529799
62.861514
61.268804
59.765578
58.323478
56.962403
55.648552
54.412141
53.207447
52.080682
50.97104
49.939422
48.914939
47.96565
47.017716
46.141056
45.261294
44.44962
43.630726
42.877363
42.113057
41.412366
40.696862
40.044405
39.37195
38.764663
38.129542
37.564706
36.963003
36.436137
35.866547
35.372863
34.832735
34.371119
33.855808
33.424328
32.933246
32.527761
32.058669
31.679345
31.229252
30.872977
30.441989
30.107781
29.692489
29.379012
28.979747
28.685353
28.29935
28.02342
27.650846
27.391894
27.030503
26.787916
26.437798
26.210644
25.869968
25.657371
25.326035
25.127605
24.804359
24.619065
24.303402
24.131045
23.822317
23.66213
23.359608
23.211197
22.847127
367.88985
320.04456
283.0801
253.69389
229.78976
209.97263
193.2842
179.03913
166.74201
156.01778
146.58626
138.22559
130.76506
124.06674
118.01888
112.53351
107.53246
102.9587
98.754951
94.883449
91.300796
87.982043
84.892142
82.016913
79.324003
76.810436
74.44228
72.227027
70.128773
68.161659
66.290929
64.53175
62.855002
61.271027
59.76138
58.325424
56.960835
55.650692
54.412173
53.210416
52.081576
50.974256
49.941448
48.917466
47.968626
47.019802
46.144027
45.263413
44.45234
43.632613
42.880146
42.114483
41.415294
40.69784
40.04743
39.37273
38.767228
38.131029
37.565992
36.965364
36.437133
35.868022
35.374985
34.833582
34.372522
33.857784
33.42526
32.934284
32.529646
32.059839
31.680069
31.230762
30.874547
30.442744
30.108702
29.694045
29.380273
28.980413
28.686308
28.300772
28.024555
27.651511
27.392753
27.03176
26.789062
26.438548
26.211377
25.871001
25.658489
25.326917
25.128317
24.805154
24.620013
24.304337
24.131861
23.823071
23.662916
23.360411
23.212005
22.847931
367.88982
320.04458
283.08001
253.6938
229.78957
209.97242
193.28383
179.03879
166.74133
156.01735
146.58514
138.22511
130.76339
124.06619
118.0167
112.53263
107.53013
102.95684
98.753192
94.879719
91.300416
87.975713
84.893597
82.007834
79.327177
76.799144
74.446525
72.21467
70.133255
68.149563
66.295107
64.521225
62.858524
61.263495
59.76383
58.321979
56.962116
55.651115
54.412953
53.213246
52.082616
50.977985
49.943133
48.92096
47.971143
47.022475
46.147118
45.265556
44.45534
43.634688
42.882806
42.116531
41.417556
40.700106
40.048998
39.375316
38.768567
38.133029
37.568131
36.966428
36.439371
35.869693
35.376101
34.835665
34.374134
33.858746
33.427146
32.935962
32.530572
32.061316
31.681954
31.231871
30.875601
30.444459
30.11025
29.694945
29.381426
28.982051
28.687656
28.301657
28.025689
27.653041
27.394091
27.032701
26.790098
26.439913
26.212733
25.87205
25.65943
25.328046
25.129581
24.806305
24.62101
24.305328
24.132949
23.824198
23.664011
23.361467
23.213044
22.848943
367.88985
320.04447
283.08002
253.69359
229.78949
209.97209
193.28356
179.03832
166.74077
156.01672
146.58425
138.2242
130.76229
124.06475
118.01552
112.53051
107.52872
102.95432
98.75097
94.87738
91.296729
87.973875
84.888438
82.006018
79.321343
76.796463
74.441023
72.210658
70.128533
68.144847
66.291192
64.51668
62.855916
61.259815
59.763036
58.320068
56.962673
55.651973
54.413838
53.216857
52.083456
50.98301
49.944378
48.925659
47.973484
47.025763
46.150504
45.267785
44.458799
43.63662
42.885999
42.11803
41.420887
40.700971
40.052365
39.376102
38.771235
38.134592
37.569539
36.968784
36.440472
35.871243
35.378201
34.836559
34.375568
33.860671
33.428095
32.937026
32.532428
32.062481
31.682715
31.233347
30.877119
30.445204
30.111152
29.696426
29.382635
28.982707
28.68859
28.303011
28.026773
27.653691
27.39491
27.033887
26.791172
26.44062
26.213431
25.873014
25.660474
25.328875
25.130254
24.807065
24.621905
24.306199
24.13371
23.824887
23.664715
23.36219
23.213774
22.849676
367.88974
320.0446
283.07975
253.69377
229.78898
209.9722
193.28288
179.03809
166.74018
156.01578
146.584
138.22227
130.76241
124.06186
118.01574
112.52693
107.52854
102.95052
98.749633
94.874168
91.293059
87.972448
84.881103
82.007264
79.310044
76.799802
74.427237
72.214127
70.115088
68.146105
66.280771
64.515332
62.849403
61.257445
59.760045
58.318867
56.962432
55.652829
54.415825
53.219007
52.087213
50.985782
49.948252
48.929817
47.975702
47.031108
46.152228
45.271852
44.461937
43.639029
42.889353
42.120509
41.42357
40.703331
40.055162
39.378043
38.773798
38.136743
37.571673
36.970872
36.442592
35.873188
35.380143
34.838514
34.377459
33.862463
33.429988
32.938832
32.534165
32.064225
31.684455
31.234963
30.878753
30.446853
30.112767
29.697984
29.384237
28.984295
28.690133
28.304499
28.028286
27.655188
27.396351
27.035293
26.792582
26.442029
26.214818
25.874367
25.661839
25.330247
25.131616
24.808402
24.623215
24.307488
24.134992
23.82614
23.665951
23.363418
23.214996
22.850884
367.88977
320.04455
283.07965
253.69375
229.78861
209.97222
193.28217
179.03809
166.73912
156.01561
146.58263
138.22183
130.76065
124.06119
118.01336
112.52611
107.52542
102.94938
98.74593
94.87219
91.289222
87.968966
84.87739
82.002235
79.305818
76.794094
74.421645
72.208356
70.108287
68.140483
66.273815
64.509826
62.844329
61.252413
59.758721
58.314994
56.965081
55.651631
54.420013