/*--------------------------------*- C++ -*----------------------------------*\
| =========                 |                                                 |
| \\      /  F ield         | OpenFOAM: The Open Source CFD Toolbox           |
|  \\    /   O peration     | Version:  2406                                  |
|   \\  /    A nd           | Website:  www.openfoam.com                      |
|    \\/     M anipulation  |                                                 |
\*---------------------------------------------------------------------------*/
FoamFile
{
    version     2.0;
    format      ascii;
    arch        "LSB;label=32;scalar=64";
    class       volScalarField;
    location    "500";
    object      p;
}
// * * * * * * * * * * * * * * * * * * * * * * * * * * * * * * * * * * * * * //

dimensions      [0 2 -2 0 0 0 0];

internalField   nonuniform List<scalar> 
16045
(
1.2922933
1.2883598
1.280815
1.2701697
1.256675
1.2402978
1.2209497
1.1985991
1.1732417
1.1448645
1.1134482
1.078981
1.0414629
1.0009054
0.95733627
0.9108051
0.86138896
0.80919452
0.75436139
0.69706555
0.63752421
0.57599818
0.51279211
0.44825102
0.3827573
0.31672802
0.25061338
0.1848928
0.12006775
0.056650502
-0.004848375
-0.063932854
-0.12013355
-0.17301976
-0.22221028
-0.26738267
-0.30827943
-0.34471285
-0.37656917
-0.40381173
-0.42648031
-0.44468447
-0.45859349
-0.46842828
-0.47445875
-0.47699844
-0.47638808
-0.47296986
-0.46707086
-0.45900602
-0.4490925
-0.43765078
-0.42498782
-0.41137753
-0.39705895
-0.3822465
-0.36713374
-0.35188037
-0.33660354
-0.32139342
-0.30634894
-0.29159723
-0.27726912
-0.26344292
-0.25010806
-0.23718832
-0.22461803
-0.21241153
-0.20066964
-0.18951373
-0.1789962
-0.16905542
-0.15954961
-0.15034309
-0.14138627
-0.13273353
-0.12449251
-0.11674215
-0.1094728
-0.10258507
-0.095943245
-0.089445268
-0.083067913
-0.076862141
-0.07091044
-0.065271862
-0.059944656
-0.054863117
-0.049928276
-0.045053985
-0.040203058
-0.035394902
-0.030686019
-0.026135863
-0.02176892
-0.017570538
-0.013454303
-0.0094585463
-0.0052780947
-0.0020997324
1.2954566
1.2925217
1.2858846
1.2759216
1.2630205
1.2472097
1.2284038
1.2065693
1.1817047
1.1537991
1.1228323
1.0887898
1.0516666
1.0114691
0.96821793
0.92195523
0.87274875
0.82069598
0.76592637
0.70860635
0.64894325
0.58718933
0.52364128
0.45863842
0.39255916
0.32581993
0.25887306
0.19220399
0.12632364
0.061757803
-0.00096604639
-0.0613315
-0.11884629
-0.17305486
-0.22355044
-0.26998506
-0.31207705
-0.34961666
-0.38247117
-0.4105891
-0.43399975
-0.45280671
-0.46717728
-0.47733518
-0.48355702
-0.48616615
-0.48551399
-0.48195516
-0.47583098
-0.46747298
-0.45721336
-0.44538464
-0.43230286
-0.41825233
-0.40348458
-0.38822686
-0.37267996
-0.35700508
-0.34131775
-0.32571025
-0.31028872
-0.29518922
-0.28054625
-0.26643432
-0.25283356
-0.23966115
-0.22685134
-0.21442492
-0.20248996
-0.19117013
-0.18051286
-0.17044796
-0.16082553
-0.15150732
-0.14244586
-0.13369988
-0.12537986
-0.1175643
-0.1102404
-0.10330558
-0.096621452
-0.090085135
-0.083673256
-0.077437298
-0.071459781
-0.065799221
-0.060452656
-0.055354028
-0.050404322
-0.045518051
-0.040658484
-0.035845074
-0.031132851
-0.026578943
-0.022205822
-0.01799995
-0.013873329
-0.0098649224
-0.0056252408
-0.0023399211
1.3013131
1.2986869
1.2923035
1.2824668
1.2696624
1.2539623
1.2352725
1.213548
1.1887849
1.1609706
1.1300807
1.0960938
1.0589983
1.0187931
0.97549112
0.92912555
0.87975536
0.82746896
0.77238788
0.71467102
0.65451978
0.59218159
0.52795082
0.46216677
0.39521146
0.32750812
0.25952007
0.19174724
0.12471892
0.058982367
-0.0049105142
-0.066417131
-0.12501816
-0.18023154
-0.2316258
-0.27883129
-0.32154863
-0.35955529
-0.39271163
-0.42096543
-0.44435081
-0.46298045
-0.47703538
-0.48675804
-0.49244737
-0.49444788
-0.49312933
-0.48886429
-0.48201588
-0.472938
-0.46197875
-0.44947619
-0.43574888
-0.42108979
-0.40576636
-0.390017
-0.37403865
-0.35797545
-0.34192915
-0.32599496
-0.31029703
-0.29498667
-0.28019436
-0.26596943
-0.25226278
-0.23897792
-0.2260594
-0.21355191
-0.20158185
-0.1902711
-0.17964681
-0.169613
-0.16000447
-0.15068461
-0.14161973
-0.13288279
-0.12458997
-0.11681495
-0.1095361
-0.10264389
-0.095998364
-0.089498385
-0.083122489
-0.076922636
-0.070979565
-0.065348829
-0.060025937
-0.054946232
-0.05001561
-0.045153781
-0.040327324
-0.035554149
-0.030882362
-0.026359475
-0.02200266
-0.017800724
-0.013671494
-0.0096564163
-0.0054218897
-0.0021823114
1.3095005
1.3070092
1.300902
1.2913962
1.2789501
1.263636
1.2453492
1.2240321
1.1996726
1.1722517
1.141737
1.1080979
1.0713124
1.0313687
0.98826809
0.9420307
0.89270189
0.84035661
0.78510331
0.72708876
0.66650311
0.60358443
0.53862016
0.47194639
0.40394615
0.33504868
0.26572843
0.19650196
0.12792042
0.060558056
-0.0050018034
-0.068181715
-0.12842571
-0.18521494
-0.23808258
-0.28662649
-0.33051931
-0.36951694
-0.40346605
-0.43230831
-0.45607769
-0.4748924
-0.48894647
-0.49850342
-0.50388678
-0.50546322
-0.50362172
-0.49875711
-0.49126025
-0.48151144
-0.469874
-0.45669119
-0.44228936
-0.42698135
-0.41105828
-0.39476737
-0.37829072
-0.36174869
-0.34523589
-0.32886863
-0.31280414
-0.29720905
-0.28219382
-0.26776478
-0.2538384
-0.24031728
-0.22717732
-0.2145014
-0.20243157
-0.19107219
-0.18041268
-0.17032495
-0.16063594
-0.15122547
-0.14208479
-0.13330195
-0.12499008
-0.11720774
-0.10991912
-0.10301116
-0.0963503
-0.089843565
-0.083471983
-0.077282007
-0.071344481
-0.065706773
-0.060362982
-0.055256071
-0.050304979
-0.045441767
-0.040637513
-0.03590409
-0.031274713
-0.026779857
-0.022426382
-0.018205835
-0.014046348
-0.010004547
-0.0057185385
-0.0023959874
1.3199072
1.3175151
1.3116297
1.3023905
1.2902077
1.2751545
1.2571307
1.2360727
1.2119607
1.1847684
1.1544552
1.1209804
1.0843105
1.044421
1.0012987
0.95494861
0.9054004
0.85271338
0.79698108
0.7383363
0.67695705
0.61307168
0.54696166
0.47896192
0.40946019
0.33889675
0.26776398
0.19660331
0.12599759
0.056559184
-0.011085008
-0.076310296
-0.13851181
-0.19712252
-0.25163014
-0.30159187
-0.34664703
-0.38652837
-0.42107084
-0.45021434
-0.47399953
-0.49256039
-0.5061175
-0.51496927
-0.51947607
-0.52003904
-0.51708158
-0.5110363
-0.502332
-0.49137808
-0.47855471
-0.4642186
-0.44871776
-0.43239321
-0.41555408
-0.39844063
-0.38120941
-0.3639621
-0.3468026
-0.32987875
-0.31337274
-0.297442
-0.28215404
-0.26746743
-0.2532797
-0.23951449
-0.2261886
-0.21341108
-0.20131381
-0.18996068
-0.17929808
-0.16917916
-0.15944431
-0.15000369
-0.14087126
-0.13213447
-0.12388501
-0.11615645
-0.10890155
-0.10201543
-0.095383703
-0.088928197
-0.082629783
-0.076519472
-0.070647681
-0.065047935
-0.059715418
-0.054607735
-0.049665011
-0.044836072
-0.040095683
-0.035445727
-0.030900772
-0.02647309
-0.022158254
-0.01794737
-0.013779795
-0.0097240105
-0.0054512139
-0.0021942736
1.3324487
1.3301337
1.3244278
1.3154334
1.3035279
1.2887806
1.2710911
1.2503868
1.2266349
1.199797
1.1698203
1.1366502
1.1002377
1.0605409
1.0175282
0.97118555
0.92152243
0.86857821
0.81242684
0.75318277
0.69100759
0.62611635
0.55878172
0.48933555
0.41816935
0.34573502
0.27254496
0.19916929
0.12622834
0.05438003
-0.015696382
-0.083319051
-0.14782379
-0.20858475
-0.26503406
-0.31667957
-0.36312097
-0.40406398
-0.43932971
-0.46885642
-0.49269496
-0.51100241
-0.5240336
-0.53212714
-0.53568496
-0.53515134
-0.53099608
-0.52369755
-0.51372146
-0.50150169
-0.48743814
-0.47191345
-0.45530729
-0.43798305
-0.42024795
-0.4023195
-0.38433383
-0.36639706
-0.34864137
-0.33124085
-0.31437288
-0.29815413
-0.28260129
-0.26764745
-0.25320678
-0.23924562
-0.22581274
-0.21301085
-0.2009283
-0.18957693
-0.17887654
-0.16869335
-0.1589071
-0.1494633
-0.14038258
-0.13172725
-0.12355034
-0.11585841
-0.10860373
-0.10170485
-0.095077846
-0.088663333
-0.08243853
-0.076412076
-0.070607424
-0.065041746
-0.059711879
-0.054592358
-0.049645174
-0.044834637
-0.040137563
-0.035545687
-0.031059262
-0.026678319
-0.022391484
-0.018189744
-0.01401915
-0.0099633145
-0.0056786339
-0.0023778462
1.3470556
1.3448087
1.3392679
1.3305143
1.3188948
1.3044648
1.2871172
1.2667688
1.2433732
1.2168789
1.1872189
1.1543228
1.1181237
1.0785603
1.0355801
0.98914651
0.93924585
0.88589363
0.82914048
0.76907875
0.70585044
0.63965465
0.5707534
0.49947471
0.42621465
0.35143918
0.27568527
0.19955874
0.12372665
0.048903938
-0.024164449
-0.094724818
-0.162038
-0.22540351
-0.28418325
-0.3378235
-0.38587537
-0.42801125
-0.46403494
-0.493884
-0.51762651
-0.53545326
-0.54766362
-0.55464584
-0.5568559
-0.55479822
-0.54900482
-0.54000806
-0.52831293
-0.5143845
-0.4986587
-0.48156092
-0.46350467
-0.44486006
-0.4259146
-0.40686401
-0.38784743
-0.36900145
-0.35049005
-0.3324871
-0.31512759
-0.29846881
-0.28249096
-0.26713755
-0.25236864
-0.2381923
-0.22465938
-0.21182751
-0.19971983
-0.18830418
-0.1775021
-0.16722185
-0.15739283
-0.14798398
-0.13899912
-0.13045562
-0.1223626
-0.11470644
-0.10745061
-0.10054381
-0.093932585
-0.087572593
-0.081434736
-0.075507557
-0.069792085
-0.064293057
-0.059008364
-0.053923452
-0.049013434
-0.044249625
-0.039607807
-0.035072623
-0.030636735
-0.026296062
-0.022038628
-0.01785842
-0.013707379
-0.0096706227
-0.0054273049
-0.0022009301
1.3636667
1.3614864
1.3561073
1.3475965
1.3362746
1.322183
1.3052077
1.2852559
1.2622685
1.2361788
1.2069038
1.1743546
1.1384437
1.099087
1.0562072
1.009741
0.95964665
0.90591079
0.84855551
0.78764601
0.72329948
0.65569448
0.58507838
0.51177239
0.43617564
0.3587686
0.28011563
0.2008635
0.12173397
0.043509562
-0.032986287
-0.10691319
-0.17744097
-0.24377831
-0.30520189
-0.36108418
-0.41091828
-0.45433701
-0.49112491
-0.52122285
-0.54472487
-0.56186561
-0.57299952
-0.5785781
-0.57912926
-0.5752348
-0.56749864
-0.55650965
-0.54281673
-0.52692971
-0.50933682
-0.49051056
-0.47088451
-0.45081527
-0.43056449
-0.41032162
-0.39025125
-0.37052622
-0.35132066
-0.33277311
-0.31495491
-0.29787181
-0.28149684
-0.26581019
-0.25081879
-0.23654766
-0.22301636
-0.21021832
-0.19811839
-0.18666505
-0.17580633
-0.16550015
-0.15571284
-0.146415
-0.13757812
-0.12917608
-0.12118822
-0.1135971
-0.10638314
-0.099517786
-0.092962852
-0.08667678
-0.08062416
-0.074784256
-0.06915179
-0.063729508
-0.058517398
-0.05350388
-0.048665524
-0.043972692
-0.039398148
-0.034923679
-0.030540115
-0.026244048
-0.022026219
-0.017883865
-0.013769044
-0.009764068
-0.0055323557
-0.002284121
1.382223
1.3801104
1.3748977
1.3666407
1.3556373
1.3419146
1.3253502
1.3058404
1.2833109
1.2576778
1.228839
1.1966848
1.161104
1.1219863
1.0792258
1.0327279
0.98241777
0.9282483
0.8702076
0.80832787
0.74269593
0.67346424
0.60086074
0.52519634
0.44687132
0.36638109
0.28432053
0.20138363
0.11835639
0.036101853
-0.044461682
-0.1223882
-0.19673581
-0.26660149
-0.33115702
-0.38968364
-0.4416023
-0.48649727
-0.52413178
-0.5544542
-0.57759206
-0.59383333
-0.60360141
-0.60743096
-0.60594358
-0.59981425
-0.58972672
-0.57633397
-0.56024357
-0.54202844
-0.52223805
-0.50138414
-0.47990474
-0.45813846
-0.4363358
-0.41470154
-0.39343167
-0.37271499
-0.3527028
-0.33347911
-0.31506214
-0.2974371
-0.28059563
-0.26455269
-0.24933252
-0.23494188
-0.22135187
-0.2085051
-0.19634028
-0.1848141
-0.17390672
-0.16360395
-0.15387708
-0.14467487
-0.13593596
-0.1276126
-0.11968256
-0.11214421
-0.10499458
-0.098210913
-0.091747916
-0.085550679
-0.079575412
-0.073801017
-0.068228069
-0.062865658
-0.057715651
-0.052764796
-0.047985697
-0.043346755
-0.038822007
-0.034396835
-0.030067537
-0.025835022
-0.021692759
-0.017634833
-0.01360424
-0.009668798
-0.0054869577
-0.0022589289
1.4026633
1.4006231
1.3955871
1.3876026
1.3769456
1.3636296
1.3475229
1.3285101
1.3065013
1.2813943
1.2530669
1.2213862
1.1862152
1.1474142
1.1048444
1.0583756
1.0078951
0.95331586
0.89458557
0.83169655
0.76469783
0.69370872
0.61893117
0.54066037
0.45929419
0.37534182
0.2894305
0.2023069
0.11483083
0.027959865
-0.057274751
-0.13979975
-0.21853787
-0.29245014
-0.36058029
-0.42209746
-0.47633419
-0.52281721
-0.56128762
-0.59170672
-0.6142451
-0.62925891
-0.63726201
-0.63889744
-0.63490229
-0.62605952
-0.61314571
-0.59689588
-0.57799694
-0.55709654
-0.53479967
-0.51164182
-0.48805903
-0.46438486
-0.44088068
-0.41777417
-0.39527211
-0.37354199
-0.35268646
-0.33274108
-0.31370288
-0.29556707
-0.27834582
-0.26205745
-0.24670025
-0.23223596
-0.21859519
-0.20570469
-0.19351399
-0.18200438
-0.17117224
-0.16099716
-0.15142245
-0.14236183
-0.13373261
-0.12548932
-0.11763219
-0.11018488
-0.10315697
-0.096519165
-0.09020787
-0.084151681
-0.078301001
-0.072640307
-0.067178234
-0.061927227
-0.056884498
-0.052027418
-0.047320935
-0.042731491
-0.038238975
-0.03384012
-0.02954473
-0.025365746
-0.021301465
-0.017340269
-0.013409742
-0.0095581101
-0.0054366163
-0.002232236
1.4249234
1.4229611
1.4181175
1.4104307
1.4001554
1.3872919
1.3716993
1.3532499
1.3318373
1.3073401
1.2796137
1.2484999
1.2138326
1.1754389
1.1331433
1.0867747
1.0361763
0.98121461
0.92178921
0.85784398
0.7893815
0.71647896
0.639304
0.55812881
0.4733434
0.38546792
0.2951627
0.20323235
0.11062098
0.01839661
-0.072275129
-0.16016775
-0.24403937
-0.32268463
-0.39498933
-0.45998409
-0.51689296
-0.56517339
-0.60454114
-0.63497494
-0.6567014
-0.67016675
-0.67600276
-0.6749872
-0.6679932
-0.65592981
-0.6396884
-0.62011104
-0.59798193
-0.57402448
-0.5488865
-0.52311776
-0.49715967
-0.47136017
-0.44600342
-0.42132684
-0.39751524
-0.37468571
-0.35288873
-0.33213562
-0.31243152
-0.29379151
-0.27622852
-0.2597277
-0.24423382
-0.2296601
-0.21591886
-0.20294957
-0.19072963
-0.179261
-0.16853562
-0.15850737
-0.1490838
-0.14015238
-0.13162467
-0.12346664
-0.11569745
-0.10835141
-0.10143476
-0.094905622
-0.088688253
-0.082711197
-0.076937025
-0.071367183
-0.06602219
-0.060912345
-0.056021959
-0.051309311
-0.046723022
-0.042221331
-0.037785234
-0.033422739
-0.029159511
-0.02502473
-0.0210263
-0.017151504
-0.013317042
-0.0095567246
-0.0055039937
-0.0023142976
1.4489332
1.4470572
1.4424249
1.4350666
1.4252155
1.4128587
1.3978463
1.3800382
1.3593107
1.3355222
1.3085043
1.2780716
1.2440261
1.206159
1.1642535
1.1180928
1.0674697
1.0121967
0.95211671
0.88711568
0.81713922
0.74221165
0.66245557
0.57811039
0.48955019
0.3973009
0.30205495
0.20467928
0.10621299
0.0078523992
-0.08907799
-0.18316771
-0.27297481
-0.35708948
-0.43420259
-0.50317383
-0.56309452
-0.6133381
-0.65359044
-0.68385475
-0.70443324
-0.71589182
-0.71901329
-0.71474058
-0.70411023
-0.6881854
-0.6680011
-0.64453006
-0.6186641
-0.59119949
-0.56282166
-0.53409792
-0.50548618
-0.47735599
-0.45000427
-0.42365345
-0.39844332
-0.37443521
-0.35164205
-0.33006803
-0.30972795
-0.29063743
-0.27278191
-0.25609785
-0.24048183
-0.22582122
-0.21202991
-0.19906273
-0.18690729
-0.17555659
-0.1649781
-0.15509878
-0.14581335
-0.13701623
-0.12863802
-0.12066152
-0.11310518
-0.1059839
-0.099272789
-0.092903468
-0.08679137
-0.08087674
-0.07514912
-0.069638059
-0.064382426
-0.059396187
-0.054653811
-0.050098143
-0.045661193
-0.041288625
-0.036955263
-0.032669883
-0.028466235
-0.024383058
-0.0204374
-0.016620973
-0.012853656
-0.0091650164
-0.005213681
-0.0021383847
1.4746163
1.4728353
1.468437
1.4614439
1.4520663
1.4402787
1.4259226
1.4088454
1.3889062
1.3659417
1.3397591
1.3101437
1.2768637
1.2396705
1.1983019
1.1524896
1.1019693
1.0464909
0.98583089
0.91980586
0.84829195
0.7712471
0.68873507
0.60094923
0.50823626
0.41111962
0.31032031
0.2067704
0.10161487
-0.0038022737
-0.10796904
-0.20925401
-0.30597146
-0.39645971
-0.47916783
-0.55274349
-0.61611356
-0.66854832
-0.70969896
-0.73960432
-0.75866797
-0.76761064
-0.76740504
-0.7591985
-0.74423029
-0.72375488
-0.69898031
-0.6710262
-0.6408966
-0.60946225
-0.57745296
-0.54546269
-0.51396735
-0.48334333
-0.45387326
-0.42574416
-0.3990492
-0.37381143
-0.35002411
-0.32767953
-0.30677406
-0.28728426
-0.26914559
-0.25225487
-0.23649287
-0.22175916
-0.20798563
-0.19513083
-0.18315864
-0.17201365
-0.16161403
-0.15185735
-0.14264434
-0.1339064
-0.12562002
-0.11780002
-0.1104673
-0.10361024
-0.097166072
-0.091032498
-0.085109305
-0.07933935
-0.073724779
-0.068311475
-0.063149405
-0.058260306
-0.053622992
-0.049182491
-0.04487177
-0.040632818
-0.036434132
-0.032276043
-0.028184078
-0.024191944
-0.02031371
-0.016544651
-0.012813577
-0.0091645762
-0.00525423
-0.0022105341
1.5018873
1.5002122
1.4960739
1.4894873
1.4806393
1.4694916
1.4558779
1.4396336
1.4206
1.3985923
1.3733922
1.3447546
1.3124113
1.2760711
1.235422
1.1901388
1.1398925
1.0843619
1.0232458
0.95627867
0.88325218
0.8040416
0.71863456
0.62716119
0.52992524
0.42743529
0.32043392
0.20991897
0.097151209
-0.016356437
-0.12887127
-0.23849628
-0.343248
-0.44115365
-0.53036131
-0.60925331
-0.67655078
-0.73139641
-0.77340299
-0.8026618
-0.81971067
-0.82546891
-0.82114877
-0.80815495
-0.78798182
-0.76211928
-0.73197744
-0.69883626
-0.66381756
-0.6278744
-0.59179183
-0.55619587
-0.52157014
-0.48827042
-0.45653679
-0.42650723
-0.39823642
-0.37172861
-0.34696446
-0.32391102
-0.30251427
-0.28268194
-0.26428872
-0.24719898
-0.23129782
-0.21651105
-0.20279524
-0.19011192
-0.17839757
-0.1675482
-0.15742821
-0.1478988
-0.13885173
-0.13023657
-0.1220614
-0.11436681
-0.10718532
-0.1005017
-0.094244263
-0.088305898
-0.082584912
-0.077022755
-0.071613066
-0.06638604
-0.061377599
-0.056602575
-0.052047736
-0.047676149
-0.04344207
-0.039304496
-0.035236389
-0.03123175
-0.027299397
-0.023453559
-0.019692911
-0.016004487
-0.012323537
-0.008701688
-0.0048511091
-0.0019076949
1.5306521
1.529094
1.525245
1.5191113
1.5108551
1.5004258
1.4876506
1.4723531
1.4543576
1.4334577
1.4094088
1.3819347
1.3507291
1.3154555
1.2757483
1.2312193
1.1814678
1.1260915
1.0646992
0.99692826
0.92246853
0.8410926
0.75269046
0.65730688
0.55518145
0.44678995
0.33288438
0.21452487
0.093096271
-0.029697074
-0.15186348
-0.2711865
-0.38531822
-0.49190008
-0.58870328
-0.67377566
-0.74557884
-0.80309691
-0.8459006
-0.87415628
-0.88857974
-0.89034687
-0.88097567
-0.86219614
-0.83581995
-0.80362197
-0.76724741
-0.72815421
-0.68759068
-0.64659689
-0.60601346
-0.56649327
-0.5285126
-0.49238673
-0.45829628
-0.42631702
-0.39645969
-0.36870094
-0.34299653
-0.31928027
-0.29744519
-0.2773431
-0.25879994
-0.24164484
-0.22574376
-0.21100708
-0.19738241
-0.18482793
-0.17328177
-0.16264599
-0.1527877
-0.1435626
-0.13485016
-0.12657893
-0.11873165
-0.11132448
-0.10436984
-0.097851048
-0.091714448
-0.085888687
-0.080311499
-0.074945667
-0.069780347
-0.06481525
-0.060046118
-0.055457999
-0.051027212
-0.046730161
-0.04254797
-0.038468744
-0.034488376
-0.03060794
-0.026831462
-0.023157864
-0.01956941
-0.016041802
-0.012501014
-0.0090017131
-0.0052165095
-0.0022411279
1.5608055
1.559378
1.5558497
1.5502192
1.5426229
1.5329983
1.5211671
1.5069427
1.4901326
1.4705093
1.4478027
1.4217045
1.3918696
1.3579139
1.3194145
1.2759152
1.2269356
1.171982
1.1105601
1.0421935
0.96644976
0.88297505
0.79153519
0.69206138
0.58470095
0.46987161
0.34831558
0.22114603
0.089876941
-0.043572686
-0.17690844
-0.30752973
-0.43264126
-0.54940349
-0.65511232
-0.74739105
-0.82437176
-0.88484015
-0.92832025
-0.9550836
-0.96608396
-0.96283372
-0.94724487
-0.92145739
-0.88767221
-0.84800559
-0.80437903
-0.75845519
-0.7116203
-0.66499544
-0.61945898
-0.57566887
-0.53407747
-0.49495508
-0.45842156
-0.42448592
-0.39309395
-0.36415692
-0.33756899
-0.3132072
-0.29092424
-0.27055415
-0.25191796
-0.23483616
-0.2191392
-0.20467654
-0.19132469
-0.17898915
-0.16759476
-0.15706793
-0.14732556
-0.13827249
-0.12981748
-0.12188887
-0.11443702
-0.10742597
-0.10081435
-0.094548777
-0.088574725
-0.082852154
-0.077369523
-0.072136381
-0.067161637
-0.062436215
-0.057922802
-0.053568915
-0.04932397
-0.045153139
-0.041044856
-0.037003223
-0.033044089
-0.029186214
-0.025444314
-0.02182436
-0.018310831
-0.014878691
-0.01145286
-0.0080630988
-0.0044395203
-0.0016629365
1.5922319
1.5909481
1.5877745
1.5827016
1.5758386
1.5671119
1.5563393
1.5433256
1.5278628
1.5097033
1.4885522
1.46407
1.4358723
1.4035259
1.3665478
1.3244087
1.2765416
1.2223507
1.1612243
1.0925537
1.0157607
0.93033732
0.83589254
0.73220836
0.61930291
0.49750069
0.36750502
0.23046453
0.088021886
-0.057667147
-0.20395642
-0.34778373
-0.48580295
-0.61457138
-0.7307814
-0.83151326
-0.91447749
-0.97820927
-1.0221808
-1.0468109
-1.0533736
-1.0438261
-1.0205912
-0.98632597
-0.94370781
-0.89525958
-0.84322464
-0.78950069
-0.73562282
-0.68278216
-0.63186707
-0.58350125
-0.53808379
-0.4958267
-0.45678894
-0.42092184
-0.38809941
-0.3581459
-0.33085531
-0.30600156
-0.28336592
-0.26275209
-0.24399393
-0.22694516
-0.21145489
-0.19735875
-0.18448276
-0.17265998
-0.16174388
-0.15161272
-0.14216727
-0.13333438
-0.12506962
-0.11735426
-0.11017885
-0.10351327
-0.097289892
-0.091407985
-0.085765837
-0.0803
-0.07500405
-0.069916773
-0.065086745
-0.060534785
-0.056239839
-0.052146295
-0.04818727
-0.044306247
-0.040465493
-0.036650208
-0.032863334
-0.029124225
-0.025461509
-0.021904131
-0.018467065
-0.015152363
-0.011896735
-0.0087323885
-0.0052673461
-0.0024285443
1.6248022
1.6236772
1.6208941
1.6164363
1.6103846
1.6026551
1.5930639
1.5814091
1.5674691
1.5509781
1.5316182
1.5090199
1.4827602
1.4523568
1.4172643
1.376877
1.3305339
1.2775271
1.2171129
1.1485297
1.0710279
0.98391194
0.8865952
0.77866578
0.65996472
0.53067552
0.39142039
0.24335338
0.088236
-0.071520575
-0.23286457
-0.3921798
-0.54543982
-0.68844157
-0.81710527
-0.92781038
-1.0177227
-1.085058
-1.1292324
-1.1508725
-1.1516846
-1.134216
-1.1015537
-1.0570121
-1.0038576
-0.94509551
-0.883334
-0.82072346
-0.75894818
-0.69926129
-0.64253855
-0.58933591
-0.53995689
-0.4945077
-0.4529534
-0.41516697
-0.38095528
-0.35007865
-0.32225186
-0.29715574
-0.2744671
-0.25389356
-0.23520256
-0.21822117
-0.20281888
-0.1888793
-0.1762803
-0.16488103
-0.15451255
-0.14498575
-0.13611074
-0.12773507
-0.11978256
-0.11225933
-0.10522419
-0.098728176
-0.092755909
-0.087213986
-0.08196017
-0.076863291
-0.071855446
-0.066939534
-0.062169723
-0.057607212
-0.05328767
-0.049212399
-0.045348352
-0.041643957
-0.038036548
-0.034463773
-0.03087971
-0.027264851
-0.023637277
-0.020043709
-0.016539949
-0.013176588
-0.00993981
-0.0068617366
-0.0036837259
-0.0012939439
1.6583755
1.6574237
1.6550689
1.6512862
1.6461272
1.6394992
1.6312191
1.6210807
1.6088515
1.5942502
1.5769385
1.5565195
1.5325336
1.5044502
1.4716618
1.4334831
1.3891541
1.337845
1.2786652
1.2106792
1.1329366
1.0445172
0.94459198
0.83249995
0.7078436
0.57060149
0.42125443
0.26091404
0.091436318
-0.084501449
-0.26338518
-0.44093488
-0.61228216
-0.77226001
-0.91579318
-1.038348
-1.1363785
-1.2076885
-1.251638
-1.2691483
-1.2625144
-1.2350669
-1.1907573
-1.1337412
-1.0680192
-0.99717266
-0.92421618
-0.8515465
-0.78097115
-0.71377855
-0.65081087
-0.592547
-0.53916974
-0.49063363
-0.44674069
-0.40719881
-0.37168683
-0.33988487
-0.31147916
-0.28615716
-0.26358833
-0.24342916
-0.22533383
-0.20898127
-0.19410946
-0.18054088
-0.16818657
-0.15700877
-0.14695903
-0.13791687
-0.12967636
-0.12199236
-0.11466551
-0.10761397
-0.10088324
-0.094588314
-0.088823117
-0.08359044
-0.078788874
-0.074256555
-0.069835489
-0.065427403
-0.061010915
-0.056630931
-0.052369272
-0.048309322
-0.044509365
-0.040977102
-0.037663914
-0.034473584
-0.031292296
-0.028030805
-0.0246542
-0.021196107
-0.017735399
-0.014376631
-0.011163186
-0.0082027579
-0.005106484
-0.0025972819
1.6927963
1.6920341
1.6901457
1.6870995
1.6829172
1.6774986
1.6706644
1.6622075
1.6518877
1.6394119
1.624425
1.6065067
1.5851644
1.5598224
1.5298123
1.4943689
1.4526293
1.4036341
1.3463316
1.2795911
1.2022304
1.1130622
1.0109604
0.89494798
0.76431089
0.61873788
0.45848407
0.2845458
0.098826583
-0.095733772
-0.29510287
-0.49420917
-0.68713981
-0.86749918
-1.0289179
-1.1656601
-1.2732391
-1.3489225
-1.3920175
-1.4038692
-1.3875808
-1.3475308
-1.2887996
-1.2166146
-1.1358855
-1.0508843
-0.96507848
-0.88110148
-0.80083384
-0.72552329
-0.65591461
-0.59236653
-0.53492982
-0.48341821
-0.43746147
-0.39656424
-0.3601839
-0.3277985
-0.29896834
-0.27335336
-0.25068833
-0.23072513
-0.21316424
-0.19762985
-0.18370059
-0.17099832
-0.15928187
-0.14847799
-0.13862966
-0.12978029
-0.12186451
-0.11468295
-0.10796685
-0.10149168
-0.09517212
-0.089068835
-0.083326459
-0.07807586
-0.07335068
-0.069069797
-0.065062538
-0.061134306
-0.057137631
-0.053013782
-0.048812548
-0.044661565
-0.040712612
-0.037079871
-0.033786014
-0.030756025
-0.027841298
-0.024880684
-0.021761439
-0.018453826
-0.015013472
-0.011555572
-0.0081879943
-0.0050610686
-0.0021366574
-0.00031056967
1.7278969
1.727339
1.7259554
1.7237079
1.7205873
1.7164879
1.7112378
1.7046329
1.6964292
1.6863263
1.6739577
1.6588853
1.6405891
1.6184529
1.5917516
1.5596424
1.5211588
1.4752062
1.4205606
1.3558748
1.2797026
1.1905436
1.0869118
0.96743396
0.830982
0.6768439
0.50493277
0.31602156
0.1119812
-0.10401498
-0.32736804
-0.55206902
-0.77090826
-0.97591491
-1.1590226
-1.3128963
-1.4317912
-1.5122689
-1.5535957
-1.5577269
-1.5288872
-1.4728723
-1.39625
-1.3056086
-1.206967
-1.1053983
-1.0048636
-0.90823639
-0.81742719
-0.7335532
-0.6571332
-0.58825362
-0.52672731
-0.47219929
-0.42419335
-0.38214057
-0.34537577
-0.31317395
-0.28482013
-0.2597005
-0.23738918
-0.21764655
-0.2003362
-0.1852852
-0.17218209
-0.16058795
-0.15005276
-0.1402675
-0.13114225
-0.12275867
-0.11522632
-0.10854278
-0.1025396
-0.096945068
-0.091507769
-0.086106313
-0.080787601
-0.075715673
-0.071072969
-0.066952185
-0.063299347
-0.059925271
-0.056580331
-0.05306259
-0.049297913
-0.0453687
-0.041467398
-0.037807217
-0.034530992
-0.031652341
-0.029060994
-0.026570666
-0.02399483
-0.021210292
-0.01818427
-0.014989038
-0.011719691
-0.0086190873
-0.0054092918
-0.0028992074
1.7634939
1.7631564
1.7623156
1.7609279
1.7589532
1.7562827
1.7527557
1.7481753
1.7422991
1.7348249
1.7253816
1.7135204
1.6987013
1.6802758
1.6574691
1.6293665
1.5949009
1.5528415
1.5017833
1.440145
1.366185
1.2780406
1.1737963
1.0515882
0.90975395
0.74703786
0.56285309
0.35759294
0.13296536
-0.10769278
-0.35918846
-0.6144146
-0.86455194
-1.0995987
-1.3092423
-1.4839957
-1.6164131
-1.7021155
-1.7403571
-1.7339759
-1.6887582
-1.6124308
-1.513539
-1.4004239
-1.2804569
-1.1595929
-1.0422638
-0.93151968
-0.82924984
-0.73641023
-0.6532238
-0.579379
-0.51425311
-0.45710169
-0.40719888
-0.36388691
-0.32653308
-0.29445338
-0.26685251
-0.24287124
-0.22173283
-0.20289831
-0.1861284
-0.17138096
-0.15860843
-0.14759125
-0.13791344
-0.12909688
-0.12079915
-0.11292757
-0.10560563
-0.099019387
-0.093237742
-0.088131529
-0.083414736
-0.078777723
-0.074043413
-0.069238362
-0.064563683
-0.060270975
-0.056505791
-0.053224254
-0.05019873
-0.047129567
-0.043788241
-0.040111826
-0.036225268
-0.032365709
-0.028776555
-0.025609673
-0.022873848
-0.020450632
-0.018142756
-0.015748995
-0.013123763
-0.010221151
-0.00708787
-0.00390627
-0.00090363349
0.00075183804
1.7993922
1.7992887
1.7990275
1.7985589
1.7978118
1.7966771
1.7950099
1.7926256
1.7892889
1.784703
1.7785002
1.77023
1.7593429
1.7451685
1.7268936
1.7035414
1.673953
1.6367654
1.5903901
1.5329987
1.4625263
1.3766992
1.2730969
1.1492567
1.0028372
0.83185744
0.6350195
0.41211432
0.16448448
-0.10450631
-0.38908487
-0.68088062
-0.96908046
-1.2410498
-1.4834744
-1.6839357
-1.8326558
-1.9239928
-1.9572531
-1.9365622
-1.8698927
-1.767602
-1.6408684
-1.5003251
-1.3550266
-1.2118954
-1.0757131
-0.94946402
-0.83480108
-0.73241931
-0.64227649
-0.56376823
-0.49587482
-0.43734257
-0.38689134
-0.34338555
-0.30595459
-0.27395295
-0.24680611
-0.22385567
-0.20430765
-0.18735922
-0.17239131
-0.15908916
-0.14738946
-0.13728044
-0.128599
-0.12097123
-0.11393733
-0.10716253
-0.10059161
-0.094425883
-0.088947229
-0.08429685
-0.080344204
-0.076734535
-0.073068417
-0.069116604
-0.06493079
-0.060791712
-0.057034794
-0.05384904
-0.051177571
-0.048749255
-0.046221339
-0.043342071
-0.040049447
-0.036481445
-0.032895759
-0.02956172
-0.026659338
-0.024223908
-0.022146327
-0.020217633
-0.018202565
-0.015934591
-0.013312697
-0.010507355
-0.0071351564
-0.0040660333
1.8353815
1.835527
1.8358793
1.8363847
1.8369422
1.8374451
1.8377688
1.8377467
1.8371575
1.8357177
1.8330724
1.8287808
1.8222967
1.8129422
1.7998807
1.7820893
1.7583319
1.7271251
1.686703
1.6349854
1.5695631
1.4877074
1.3864155
1.262506
1.1127883
0.93432919
0.72484248
0.48320511
0.21008799
-0.091359415
-0.41487459
-0.7506747
-1.0854881
-1.4032523
-1.6866004
-1.9190686
-2.0876334
-2.1849389
-2.2104668
-2.1702596
-2.075389
-1.9398033
-1.7781717
-1.6040631
-1.4286003
-1.2598153
-1.1027487
-0.96005168
-0.83274452
-0.72083439
-0.62372046
-0.5404246
-0.4696905
-0.41002953
-0.35977426
-0.31723094
-0.280919
-0.24975741
-0.22309273
-0.2005258
-0.18164311
-0.16584913
-0.15240753
-0.14065228
-0.13019355
-0.12093764
-0.11290056
-0.10597285
-0.09982052
-0.094000917
-0.08821308
-0.082473867
-0.077085653
-0.072414013
-0.068603476
-0.065450146
-0.062493345
-0.059264546
-0.055550881
-0.051484231
-0.047447674
-0.043849462
-0.040900723
-0.03852818
-0.036420091
-0.034189157
-0.0315441
-0.02839767
-0.024888159
-0.021300863
-0.017952745
-0.015070292
-0.012711126
-0.010755917
-0.0089612855
-0.0070624067
-0.0048656644
-0.002335638
0.00025205768
0.0016903445
1.8712419
1.8716477
1.8726437
1.8741733
1.8761054
1.8783391
1.8807754
1.8832719
1.8856283
1.8875836
1.8888068
1.8888803
1.8872766
1.8833284
1.8761956
1.8648319
1.8479463
1.823957
1.7909376
1.7465643
1.6880752
1.6122527
1.515439
1.3936085
1.2425259
1.0580318
0.83649189
0.57544227
0.27442667
-0.064018704
-0.43337088
-0.82234087
-1.2146562
-1.58977
-1.9247917
-2.1975914
-2.3905679
-2.4940021
-2.5077796
-2.4408261
-2.3086732
-2.1302606
-1.9249165
-1.7098694
-1.49856
-1.3000852
-1.1196387
-0.95947946
-0.8198665
-0.69977286
-0.59746233
-0.51095311
-0.43836069
-0.37799261
-0.32823139
-0.28740819
-0.25377627
-0.22569215
-0.20188787
-0.18161185
-0.1645206
-0.15035163
-0.13865345
-0.12878195
-0.12013795
-0.11241021
-0.10559227
-0.099762928
-0.094813445
-0.090371905
-0.085984953
-0.081413471
-0.076806821
-0.07259254
-0.069170797
-0.066613275
-0.064578486
-0.062492407
-0.059858201
-0.056521008
-0.052724767
-0.048966336
-0.045732871
-0.043265522
-0.041466302
-0.039961013
-0.03828684
-0.036094395
-0.033284484
-0.030028604
-0.026672808
-0.023586007
-0.021007805
-0.018969781
-0.017301451
-0.015739126
-0.013977787
-0.011976975
-0.0090156855
-0.0056340656
1.9067401
1.9074174
1.9090829