/*--------------------------------*- C++ -*----------------------------------*\
| =========                 |                                                 |
| \\      /  F ield         | OpenFOAM: The Open Source CFD Toolbox           |
|  \\    /   O peration     | Version:  2406                                  |
|   \\  /    A nd           | Website:  www.openfoam.com                      |
|    \\/     M anipulation  |                                                 |
\*---------------------------------------------------------------------------*/
FoamFile
{
    version     2.0;
    format      ascii;
    arch        "LSB;label=32;scalar=64";
    class       surfaceScalarField;
    location    "500";
    object      phi;
}
// * * * * * * * * * * * * * * * * * * * * * * * * * * * * * * * * * * * * * //

dimensions      [0 3 -1 0 0 0 0];

oriented        oriented;

internalField   nonuniform List<scalar> 
39940
(
0.7500023
-1.8597719e-06
0.7500072
-6.2725329e-06
0.7500147
-1.1286575e-05
0.75002469
-1.6732952e-05
0.75003714
-2.2562235e-05
0.75005204
-2.8761552e-05
0.75007002
-3.5917921e-05
0.75008989
-4.2215705e-05
0.75011226
-4.9439687e-05
0.75013714
-5.6975362e-05
0.75016455
-6.4806533e-05
0.75019449
-7.2913889e-05
0.75022755
-8.1873348e-05
0.75026252
-8.985486e-05
0.75029995
-9.8622683e-05
0.75033979
-0.00010753336
0.75038257
-0.00011713594
0.75042699
-0.00012556979
0.7504741
-0.00013516768
0.75052255
-0.00014345133
0.75057334
-0.00015273757
0.75062504
-0.00016053234
0.75067858
-0.0001691398
0.75073246
-0.00017605523
0.75078755
-0.00018357681
0.75084228
-0.00018919805
0.75089747
-0.00019522188
0.75095151
-0.00019915199
0.75100518
-0.00020330902
0.75105686
-0.00020522057
0.75110734
-0.00020723839
0.75115501
-0.00020692658
0.7512001
-0.00020607785
0.75124288
-0.00020470511
0.75128185
-0.00020104225
0.75131738
-0.00019695131
0.75134927
-0.00019191226
0.75137742
-0.00018602387
0.75140175
-0.00017940057
0.75142168
-0.00017156589
0.75143847
-0.00016445465
0.75145163
-0.00015639685
0.75146072
-0.00014752329
0.75146717
-0.00013976248
0.75146999
-0.00013082526
0.75147065
-0.00012321905
0.75146822
-0.00011462848
0.75146418
-0.00010753341
0.75145761
-9.9590527e-05
0.75145
-9.3250608e-05
0.75144039
-8.6140213e-05
0.75143024
-8.0682182e-05
0.75141858
-7.4480768e-05
0.75140682
-6.9941426e-05
0.75139395
-6.4652553e-05
0.75138133
-6.100196e-05
0.75136852
-5.7163085e-05
0.75135504
-5.3110795e-05
0.7513422
-5.0625233e-05
0.75132949
-4.7881428e-05
0.75131638
-4.4854687e-05
0.75130415
-4.331724e-05
0.75129224
-4.143238e-05
0.75128066
-3.9770186e-05
0.75126945
-3.8308169e-05
0.75125863
-3.7030857e-05
0.7512476
-3.5322913e-05
0.75123759
-3.4969713e-05
0.75122799
-3.4146042e-05
0.75121879
-3.3429674e-05
0.75120997
-3.2802e-05
0.75120153
-3.2249978e-05
0.75119345
-3.176583e-05
0.75118572
-3.1343871e-05
0.75117832
-3.0977304e-05
0.75117126
-3.065863e-05
0.7511645
-3.0379676e-05
0.75115804
-3.0132921e-05
0.75115185
-2.9912569e-05
0.75114591
-2.9713265e-05
0.75114021
-2.9530351e-05
0.75113473
-2.9359431e-05
0.75112947
-2.9196894e-05
0.75112441
-2.9040604e-05
0.75111955
-2.8889527e-05
0.75111486
-2.8742953e-05
0.75111033
-2.8600554e-05
0.75110595
-2.8461371e-05
0.7511017
-2.8324185e-05
0.75109757
-2.8186879e-05
0.75109356
-2.804704e-05
0.75108966
-2.7901786e-05
0.75108586
-2.7749557e-05
0.75108216
-2.7589358e-05
0.75107855
-2.7424401e-05
0.751075
-2.7257273e-05
0.75107153
-2.7096526e-05
0.75106814
-2.6940088e-05
0.75106485
-2.6841131e-05
-2.6774117e-05
0.75000163
-3.4863082e-06
0.75000597
-1.0598377e-05
0.75001348
-1.8778043e-05
0.75002291
-2.6155153e-05
0.75003486
-3.4491645e-05
0.7500493
-4.3187269e-05
0.75006564
-5.2241154e-05
0.75008509
-6.1644802e-05
0.75010765
-7.198699e-05
0.75013216
-8.1453779e-05
0.7501592
-9.1827302e-05
0.7501894
-0.00010308281
0.75022095
-0.00011338751
0.75025624
-0.00012510061
0.75029343
-0.00013577042
0.75033368
-0.00014773601
0.75037572
-0.00015912371
0.75042065
-0.00017044838
0.75046655
-0.00018101299
0.75051567
-0.00019251035
0.75056601
-0.00020302071
0.75061855
-0.00021301697
0.75067243
-0.00022296505
0.75072735
-0.00023092489
0.75078238
-0.00023855879
0.75083836
-0.00024513016
0.7508937
-0.00025051137
0.75094917
-0.00025458746
0.75100316
-0.00025726053
0.75105643
-0.00025845571
0.75110735
-0.00025812433
0.7511567
-0.00025624813
0.75120289
-0.00025224017
0.75124615
-0.00024795126
0.75128619
-0.00024105827
0.75132274
-0.00023347646
0.75135559
-0.00022474451
0.7513846
-0.00021502548
0.75140971
-0.00020449923
0.75143091
-0.00019275511
0.75144826
-0.00018178997
0.75146126
-0.00016939062
0.75147128
-0.00015754227
0.75147734
-0.00014581244
0.75148087
-0.00013435077
0.75148094
-0.00012328523
0.75147904
-0.00011272096
0.75147425
-0.00010274164
0.75146807
-9.340914e-05
0.75145958
-8.476355e-05
0.75145027
-7.682417e-05
0.75143918
-6.9593502e-05
0.75142777
-6.306216e-05
0.75141504
-5.7210976e-05
0.7514024
-5.2009519e-05
0.75138882
-4.7417147e-05
0.75137504
-4.338764e-05
0.75136181
-3.9876859e-05
0.75134863
-3.7445974e-05
0.751335
-3.4252539e-05
0.7513228
-3.2656139e-05
0.75130969
-3.0202484e-05
0.75129751
-2.9246637e-05
0.75128569
-2.794574e-05
0.75127366
-2.6271693e-05
0.75126263
-2.6005904e-05
0.75125262
-2.5322398e-05
0.75124244
-2.4794361e-05
0.75123268
-2.4390997e-05
0.75122334
-2.40847e-05
0.7512138
-2.3254308e-05
0.75120525
-2.3690168e-05
0.75119706
-2.3581602e-05
0.75118924
-2.3522377e-05
0.75118176
-2.3503717e-05
0.75117461
-2.3516054e-05
0.75116779
-2.3549791e-05
0.75116127
-2.359785e-05
0.75115503
-2.3655268e-05
0.75114905
-2.3718177e-05
0.75114331
-2.3783109e-05
0.75113779
-2.3845466e-05
0.7511325
-2.3901368e-05
0.75112741
-2.394812e-05
0.75112252
-2.3984521e-05
0.75111782
-2.4011359e-05
0.75111327
-2.4029582e-05
0.75110887
-2.4040905e-05
0.75110461
-2.4045289e-05
0.75110047
-2.4041207e-05
0.75109645
-2.4024874e-05
0.75109255
-2.3992513e-05
0.75108874
-2.394094e-05
0.75108504
-2.3870319e-05
0.75108142
-2.3784349e-05
0.75107787
-2.3690152e-05
0.75107439
-2.3596743e-05
0.75107097
-2.3511382e-05
0.75106756
-2.3431218e-05
-2.3349216e-05
0.75000202
-4.9027081e-06
0.75000621
-1.4769202e-05
0.75001239
-2.4945589e-05
0.75002171
-3.5466124e-05
0.75003355
-4.6320476e-05
0.7500479
-5.7518313e-05
0.75006535
-6.9672594e-05
0.75008471
-8.0986067e-05
0.750106
-9.3253316e-05
0.75013103
-0.00010646237
0.75015802
-0.00011879325
0.75018759
-0.00013261734
0.75022033
-0.00014609408
0.75025504
-0.0001597713
0.75029289
-0.00017358352
0.75033265
-0.00018745061
0.75037486
-0.00020127786
0.75041942
-0.00021495459
0.75046681
-0.00022835495
0.7505163
-0.00024193892
0.75056769
-0.00025435238
0.75062015
-0.00026542976
0.75067404
-0.00027680011
0.75072965
-0.00028648454
0.75078545
-0.00029430608
0.75084226
-0.00030189562
0.75089908
-0.00030729256
0.75095549
-0.00031095709
0.75101044
-0.0003121733
0.75106468
-0.0003126597
0.75111655
-0.00030996615
0.75116622
-0.0003058894
0.75121387
-0.00029986708
0.75125792
-0.00029198263
0.75129865
-0.00028176234
0.75133637
-0.00027117703
0.75136967
-0.00025802559
0.7513984
-0.00024374099
0.75142369
-0.00022977623
0.75144493
-0.00021398715
0.75146159
-0.00019843796
0.75147499
-0.0001827799
0.7514847
-0.00016725005
0.75149036
-0.00015146074
0.75149341
-0.00013740115
0.75149296
-0.00012282002
0.75148988
-0.00010964253
0.75148511
-9.7959445e-05
0.75147773
-8.6028e-05
0.75146865
-7.5683677e-05
0.75145816
-6.6330818e-05
0.75144713
-5.8555966e-05
0.7514346
-5.052606e-05
0.75142199
-4.4602842e-05
0.75140832
-3.8325939e-05
0.75139494
-3.4034421e-05
0.75138141
-2.9856921e-05
0.75136786
-2.6330751e-05
0.75135381
-2.3396462e-05
0.75134055
-2.0993308e-05
0.75132695
-1.9055793e-05
0.75131488
-1.8117756e-05
0.75130196
-1.6315545e-05
0.75129003
-1.6006011e-05
0.7512785
-1.4749053e-05
0.7512674
-1.4917204e-05
0.75125614
-1.4072866e-05
0.75124592
-1.4583073e-05
0.75123615
-1.460885e-05
0.7512268
-1.4721523e-05
0.75121846
-1.4900258e-05
0.75120991
-1.5132002e-05
0.75120113
-1.4806363e-05
0.75119332
-1.57169e-05
0.75118585
-1.6050037e-05
0.75117873
-1.6395311e-05
0.75117194
-1.6742975e-05
0.75116545
-1.7086263e-05
0.75115924
-1.7421499e-05
0.75115328
-1.7746749e-05
0.75114756
-1.8059376e-05
0.75114207
-1.8355667e-05
0.7511368
-1.8631074e-05
0.75113174
-1.8881896e-05
0.75112688
-1.9106859e-05
0.7511222
-1.9306736e-05
0.75111768
-1.9484905e-05
0.75111331
-1.9644728e-05
0.75110907
-1.9788405e-05
0.75110495
-1.9914831e-05
0.75110095
-2.0019809e-05
0.75109707
-2.0098223e-05
0.75109329
-2.0146425e-05
0.7510896
-2.0164547e-05
0.75108599
-2.0157848e-05
0.75108245
-2.0134506e-05
0.75107897
-2.0106016e-05
0.75107554
-2.007853e-05
0.75107219
-2.0079181e-05
-2.0140387e-05
0.75000134
-6.2410501e-06
0.75000534
-1.8755231e-05
0.75001189
-3.1479609e-05
0.75002094
-4.4498908e-05
0.75003307
-5.8439504e-05
0.75004709
-7.1522336e-05
0.750063
-8.5568924e-05
0.75008263
-0.00010059118
0.75010418
-0.00011478884
0.7501283
-0.00013055202
0.75015559
-0.00014605998
0.75018488
-0.00016187993
0.75021679
-0.00017796499
0.75025131
-0.00019425229
0.75028843
-0.00021066274
0.75032872
-0.00022769899
0.75037094
-0.00024344373
0.7504162
-0.00026016225
0.75046379
-0.0002758979
0.75051299
-0.00029107795
0.7505642
-0.00030551205
0.75061842
-0.00031959684
0.75067299
-0.00033131706
0.75072941
-0.00034285496
0.75078674
-0.00035159069
0.75084461
-0.0003597163
0.75090199
-0.00036463489
0.75095965
-0.00036857944
0.75101652
-0.00036900974
0.75107153
-0.00036763177
0.75112538
-0.00036379617
0.75117643
-0.00035690693
0.75122541
-0.00034882871
0.75127073
-0.00033727744
0.75131322
-0.00032423158
0.75135078
-0.00030871597
0.75138497
-0.00029220322
0.75141565
-0.00027439703
0.75144091
-0.00025502327
0.75146255
-0.00023562085
0.75148005
-0.00021592238
0.75149292
-0.00019564601
0.75150197
-0.00017628997
0.75150803
-0.00015751537
0.75151018
-0.0001395456
0.75150933
-0.00012196021
0.7515064
-0.00010670089
0.7514999
-9.1459834e-05
0.75149258
-7.8699944e-05
0.75148294
-6.603802e-05
0.75147248
-5.5869647e-05
0.75146028
-4.6357575e-05
0.75144781
-3.8049668e-05
0.75143409
-3.087605e-05
0.75142053
-2.4753704e-05
0.7514061
-1.959264e-05
0.75139154
-1.5303383e-05
0.75137761
-1.2401821e-05
0.75136321
-9.0013227e-06
0.75134964
-7.4215381e-06
0.75133636
-5.77301e-06
0.75132284
-4.5753027e-06
0.7513103
-3.7587977e-06
0.75129817
-3.8686344e-06
0.75128647
-3.0556366e-06
0.75127461
-3.0797936e-06
0.75126442
-3.8963307e-06
0.75125409
-4.2583699e-06
0.75124362
-4.1254039e-06
0.75123419
-5.2692956e-06
0.75122518
-5.8664447e-06
0.75121656
-6.5050213e-06
0.75120892
-7.1750534e-06
0.75120045
-7.2638249e-06
0.75119295
-8.5601467e-06
0.7511858
-9.2463144e-06
0.75117899
-9.9119517e-06
0.75117247
-1.0551268e-05
0.75116624
-1.1163639e-05
0.75116026
-1.175096e-05
0.75115453
-1.2313418e-05
0.75114903
-1.2848188e-05
0.75114375
-1.3349056e-05
0.75113868
-1.3810167e-05
0.75113382
-1.4228013e-05
0.75112913
-1.460381e-05
0.75112461
-1.4942515e-05
0.75112023
-1.5250161e-05
0.75111599
-1.5531494e-05
0.75111188
-1.5786283e-05
0.75110789
-1.6010778e-05
0.75110401
-1.6198996e-05
0.75110022
-1.6346944e-05
0.75109653
-1.6455192e-05
0.75109292
-1.6528684e-05
0.75108937
-1.6577406e-05
0.75108589
-1.6610526e-05
0.75108245
-1.6640956e-05
0.75107902
-1.6641621e-05
-1.6648832e-05
0.75000129
-7.5232548e-06
0.75000514
-2.2591537e-05
0.7500121
-3.8425637e-05
0.75002094
-5.3325452e-05
0.75003165
-6.9141629e-05
0.75004605
-8.5906318e-05
0.75006235
-0.00010184795
0.75008116
-0.00011938604
0.75010252
-0.00013612662
0.75012646
-0.00015446312
0.750153
-0.00017257509
0.75018278
-0.0001916275
0.75021461
-0.00020976685
0.75024972
-0.00022932236
0.7502869
-0.00024780077
0.75032673
-0.00026748859
0.75036979
-0.00028644685
0.75041539
-0.00030571495
0.75046285
-0.00032330658
0.75051324
-0.00034141442
0.75056579
-0.00035800956
0.75061969
-0.00037344628
0.75067589
-0.00038746627
0.75073349
-0.00040040403
0.75079213
-0.00041019405
0.75085144
-0.00041898356
0.75091098
-0.00042413468
0.75096968
-0.00042724409
0.75102825
-0.0004275465
0.75108558
-0.00042492827
0.75114115
-0.00041933563
0.75119445
-0.00041018098
0.75124439
-0.00039875097
0.75129114
-0.00038400116
0.75133428
-0.00036736105
0.75137411
-0.00034852077
0.75140915
-0.00032722445
0.75143922
-0.00030445938
0.75146545
-0.00028123887
0.75148723
-0.00025738321
0.75150402
-0.00023270637
0.75151718
-0.0002088042
0.75152573
-0.00018483409
0.75153114
-0.00016291529
0.75153191
-0.00014030492
0.75153077
-0.00012081942
0.75152629
-0.00010220792
0.75152001
-8.5173077e-05
0.75151048
-6.9165555e-05
0.75150044
-5.5997875e-05
0.75148841
-4.3839079e-05
0.75147529
-3.3233336e-05
0.75146134
-2.4099104e-05
0.75144682
-1.6336011e-05
0.75143191
-9.8321913e-06
0.75141739
-5.0736142e-06
0.75140283
-7.4476044e-07
0.75138776
2.6643346e-06
0.75137349
5.2641964e-06
0.75135891
7.1644587e-06
0.75134528
7.8685759e-06
0.75133206
8.6720348e-06
0.75131926
9.0529663e-06
0.75130631
9.078088e-06
0.75129443
8.8058709e-06
0.75128304
8.2919125e-06
0.75127215
6.9893047e-06
0.75126115
6.752138e-06
0.75125182
5.2199796e-06
0.75124175
4.8288904e-06
0.75123271
3.1952436e-06
0.75122407
2.134498e-06
0.75121582
1.0567245e-06
0.75120856
-2.3666112e-08
0.75120048
-4.8760907e-07
0.75119336
-2.1202189e-06
0.75118657
-3.1066259e-06
0.75118009
-4.0440483e-06
0.75117388
-4.9359854e-06
0.75116794
-5.7878076e-06
0.75116224
-6.6022249e-06
0.75115678
-7.3764418e-06
0.75115154
-8.1031331e-06
0.75114651
-8.7745076e-06
0.75114168
-9.3862096e-06
0.75113703
-9.9395916e-06
0.75113254
-1.0440807e-05
0.7511282
-1.0897539e-05
0.751124
-1.1315256e-05
0.75111993
-1.1695189e-05
0.75111597
-1.203384e-05
0.75111212
-1.2326562e-05
0.75110837
-1.2570151e-05
0.7511047
-1.2765728e-05
0.75110111
-1.2918842e-05
0.75109758
-1.3037844e-05
0.75109411
-1.313224e-05
0.75109069
-1.3211309e-05
0.75108734
-1.3285533e-05
-1.3438441e-05
0.75000185
-8.7630642e-06
0.75000558
-2.63083e-05
0.75001116
-4.4000681e-05
0.7500198
-6.1943238e-05
0.75003147
-8.080223e-05
0.7500444
-9.8822351e-05
0.75006101
-0.00011844092
0.75007953
-0.00013788517
0.75010119
-0.00015776824
0.75012484
-0.00017808783
0.75015112
-0.00019882482
0.75018006
-0.00022054287
0.75021232
-0.00024198436
0.7502467
-0.00026366975
0.75028444
-0.00028549406
0.75032432
-0.00030732693
0.75036753
-0.00032960993
0.75041282
-0.00035095442
0.75046191
-0.00037234563
0.75051229
-0.00039173762
0.75056559
-0.00041126332
0.75062103
-0.00042883068
0.75067834
-0.00044473178
0.75073723
-0.00045925149
0.75079735
-0.00047027093
0.7508583
-0.00047988627
0.75091961
-0.00048541145
0.7509808
-0.0004884
0.75104134
-0.00048805291
0.75110068
-0.00048423286
0.75115824
-0.00047687633
0.75121349
-0.00046540126
0.75126527
-0.00045051565
0.75131431
-0.00043301754
0.75135896
-0.00041198861
0.75139945
-0.00038899318
0.75143549
-0.0003632576
0.75146691
-0.00033586084
0.7514936
-0.00030791206
0.75151495
-0.00027872605
0.75153226
-0.00025001118
0.75154451
-0.00022104186
0.75155253
-0.00019284926
0.75155663
-0.00016700886
0.75155775
-0.00014142208
0.75155507
-0.0001181304
0.75154896
-9.609981e-05
0.75154103
-7.7235897e-05
0.75153105
-5.9176481e-05
0.75151937
-4.431884e-05
0.75150634
-3.0809394e-05
0.75149227
-1.9163613e-05
0.75147745
-9.2668588e-06
0.75146211
-9.850458e-07
0.75144706
5.2232674e-06
0.75143129
1.0703286e-05
0.75141554
1.4995024e-05
0.75140056
1.763766e-05
0.75138525
2.0573165e-05
0.7513709
2.1530214e-05
0.75135636
2.2433384e-05
0.75134286
2.2186572e-05
0.75132923
2.2684392e-05
0.7513167
2.1601186e-05
0.75130468
2.0811056e-05
0.75129318
1.9778543e-05
0.75128161
1.8565371e-05
0.75127175
1.6627428e-05
0.75126118
1.5814062e-05
0.75125227
1.3754704e-05
0.7512426
1.2873216e-05
0.75123395
1.0777827e-05
0.75122571
9.2842983e-06
0.75121787
7.8084912e-06
0.75121101
6.371962e-06
0.7512033
5.5941702e-06
0.75119653
3.6834136e-06
0.75119006
2.4433263e-06
0.75118387
1.2665547e-06
0.75117795
1.4615718e-07
0.75117229
-9.2187338e-07
0.75116686
-1.9341856e-06
0.75116165
-2.8839773e-06
0.75115664
-3.7631964e-06
0.75115183
-4.5675612e-06
0.7511472
-5.2989291e-06
0.75114273
-5.9629476e-06
0.75113842
-6.5678782e-06
0.75113425
-7.1193448e-06
0.7511302
-7.6197401e-06
0.75112626
-8.0681642e-06
0.75112243
-8.4619848e-06
0.75111869
-8.8007605e-06
0.75111504
-9.0858851e-06
0.75111146
-9.3217036e-06
0.75110794
-9.5148295e-06
0.75110449
-9.6693699e-06
0.75110108
-9.7996613e-06
0.75109766
-9.8698499e-06
-9.9717612e-06
0.75000121
-9.9658316e-06
0.75000483
-2.9916413e-05
0.75001085
-5.0008407e-05
0.75001987
-7.0948571e-05
0.7500301
-9.1014792e-05
0.75004395
-0.0001126645
0.75005968
-0.00013414411
0.7500779
-0.0001560891
0.75009867
-0.00017851988
0.75012265
-0.00020203899
0.75014868
-0.00022483049
0.75017743
-0.00024925798
0.75020894
-0.00027346024
0.75024386
-0.00029855167
0.75028162
-0.00032321587
0.75032224
-0.00034790733
0.75036573
-0.0003730472
0.75041204
-0.00039722079
0.75046053
-0.00042078147
0.75051289
-0.00044404711
0.75056718
-0.00046550544
0.75062381
-0.00048541555
0.75068255
-0.00050341744
0.75074308
-0.00051973628
0.75080564
-0.00053279552
0.75086802
-0.00054222865
0.75093215
-0.00054949704
0.75099628
-0.00055249851
0.75105925
-0.00055099137
0.75112105
-0.00054600892
0.75118047
-0.00053626993
0.75123809
-0.00052299698
0.75129271
-0.00050511682
0.75134378
-0.00048407032
0.75139021
-0.00045839968
0.75143219
-0.0004309514
0.75146939
-0.00040044522
0.75150161
-0.0003680648
0.75152873
-0.00033502921
0.75155018
-0.00030016144
0.75156665
-0.00026647679
0.75157836
-0.00023274059
0.75158618
-0.00020066565
0.75158866
-0.00016948426
0.751588
-0.00014075217
0.75158401
-0.00011413367
0.75157712
-8.9207726e-05
0.75156777
-6.7877311e-05
0.75155636
-4.7766635e-05
0.75154269
-3.0649502e-05
0.75152833
-1.6446252e-05
0.751513
-3.83337e-06
0.75149701
6.7402853e-06
0.75148058
1.544525e-05
0.75146395
2.1856958e-05
0.7514473
2.7354051e-05
0.75143078
3.1509665e-05
0.75141452
3.3894588e-05
0.75139922
3.5877252e-05
0.75138376
3.7010883e-05
0.75136938
3.6832531e-05
0.7513549
3.666562e-05
0.75134157
3.6014167e-05
0.75132879
3.4369375e-05
0.75131597
3.3616494e-05
0.75130433
3.1425228e-05
0.75129324
2.96672e-05
0.75128268
2.7200299e-05
0.75127264
2.5875984e-05
0.75126247
2.3925169e-05
0.75125397
2.1368441e-05
0.75124472
2.0023809e-05
0.75123649
1.7502526e-05
0.75122868
1.5627171e-05
0.75122124
1.3817495e-05
0.75121476
1.2089316e-05
0.75120741
1.1050788e-05
0.75120097
8.8970365e-06
0.75119482
7.4246714e-06
0.75118894
6.0267973e-06
0.75118332
4.7018142e-06
0.75117795
3.452517e-06
0.75117279
2.2847862e-06
0.75116783
1.2036381e-06
0.75116306
2.1119013e-07
0.75115847
-6.9493433e-07
0.75115405
-1.520657e-06
0.75114978
-2.2726051e-06
0.75114565
-2.9569305e-06
0.75114165
-3.5767631e-06
0.75113775
-4.1339796e-06
0.75113396
-4.6293256e-06
0.75113025
-5.0640893e-06
0.75112662
-5.440387e-06
0.75112307
-5.7602588e-06
0.75111958
-6.0269184e-06
0.75111615
-6.2421301e-06
0.75111277
-6.4151837e-06
0.75110943
-6.5352452e-06
-6.7007185e-06
0.75000117
-1.1132989e-05
0.75000529
-3.4018177e-05
0.75001114
-5.5847754e-05
0.75001874
-7.853406e-05
0.75002991
-0.0001021656
0.75004287
-0.0001256111
0.75005827
-0.00014952744
0.75007616
-0.00017395889
0.7500972
-0.00019953432
0.75012024
-0.00022506324
0.75014657
-0.00025113372
0.75017506
-0.00027771109
0.75020697
-0.00030533382
0.75024116
-0.0003327095
0.7502789
-0.00036091478
0.75031962
-0.00038858816
0.75036275
-0.00041613087
0.75040949
-0.00044390501
0.75045978
-0.00047102935
0.75051237
-0.00049658268
0.75056772
-0.00052080713
0.75062626
-0.0005439086
0.75068715
-0.00056426675
0.7507495
-0.00058204151
0.75081354
-0.00059678907
0.75087942
-0.00060807371
0.75094604
-0.00061608595
0.75101224
-0.0006186623
0.75107859
-0.0006173083
0.75114322
-0.00061061348
0.75120605
-0.00059907542
0.75126639
-0.00058331282
0.75132356
-0.0005622725
0.75137695
-0.00053744007
0.751426
-0.00050742652
0.75146963
-0.0004745678
0.75150809
-0.00043889465
0.75154115
-0.00040111097
0.7515681
-0.00036196211
0.75159015
-0.00032220174
0.75160624
-0.00028255941
0.75161722
-0.00024371103
0.75162281
-0.00020625538
0.75162463
-0.00017129811
0.75162252
-0.00013863925
0.75161636
-0.00010797002
0.75160724
-8.0079951e-05
0.75159563
-5.626331e-05
0.75158259
-3.4725483e-05
0.75156795
-1.6007244e-05
0.7515515
9.3792298e-09
0.75153418
1.3488057e-05
0.75151691
2.4022569e-05
0.75149933
3.3026902e-05
0.75148167
3.9515117e-05
0.75146412
4.4905155e-05
0.75144682
4.880764e-05
0.75142989
5.0826058e-05
0.75141343
5.2355107e-05
0.75139808
5.2367749e-05
0.7513827
5.2222648e-05
0.75136851
5.0855485e-05
0.75135432
5.0189914e-05
0.75134136
4.7326141e-05
0.75132901
4.5962101e-05
0.75131667
4.3775108e-05
0.75130552
4.0837861e-05
0.75129432
3.8413794e-05
0.75128485
3.5350675e-05
0.75127528
3.3485163e-05
0.75126561
3.1037905e-05
0.7512576
2.8027336e-05
0.75124883
2.6274405e-05
0.75124108
2.3395705e-05
0.7512337
2.1210307e-05
0.75122667
1.9128729e-05
0.75122057
1.7153646e-05
0.75121358
1.5883453e-05
0.7512075
1.3511955e-05
0.75120169
1.1838607e-05
0.75119614
1.0262696e-05
0.75119082
8.7846406e-06
0.75118572
7.4055612e-06
0.75118082
6.1263093e-06
0.75117611
4.9454838e-06
0.75117157
3.8615184e-06
0.7511672
2.8703788e-06
0.75116299
1.9678026e-06
0.75115891
1.1495799e-06
0.75115495
4.1063116e-07
0.7511511
-2.5261339e-07
0.75114735
-8.4532504e-07
0.75114368
-1.3707858e-06
0.75114009
-1.83213e-06
0.75113657
-2.230524e-06
0.75113311
-2.5662654e-06
0.7511297
-2.8381924e-06
0.75112633
-3.0563634e-06
0.75112299
-3.1958199e-06
-3.362777e-06
0.75000174
-1.2263499e-05
0.75000454
-3.6811245e-05
0.75001082
-6.2111602e-05
0.75001879
-8.6485758e-05
0.75002907
-0.00011243292
0.75004171
-0.00013823369
0.75005675
-0.00016455599
0.75007487
-0.00019205537
0.75009493
-0.00021957009
0.75011761
-0.00024771765
0.75014359
-0.00027709364
0.75017238
-0.00030646591
0.75020345
-0.00033637433
0.75023811
-0.00036732402
0.75027581
-0.00039858294
0.75031665
-0.00042937879
0.75036065
-0.00046009358
0.75040786
-0.00049106351
0.75045825
-0.00052137539
0.75051238
-0.0005506672
0.75056955
-0.00057793103
0.75062901
-0.00060331476
0.75069171
-0.0006269322
0.75075678
-0.00064706951
0.75082384
-0.00066380462
0.75089242
-0.00067661825
0.75096199
-0.00068562206
0.75103193
-0.00068857364
0.75110096
-0.00068631072
0.75116955
-0.00067917182
0.75123631
-0.00066581837
0.75130048
-0.00064746019
0.75136069
-0.00062246099
0.75141622
-0.00059295516
0.75146765
-0.00055883316
0.75151323
-0.00052013085
0.75155315
-0.00047880887
0.75158717
-0.00043511223
0.75161455
-0.00038933487
0.75163594
-0.00034358155
0.75165151
-0.00029811942
0.75166155
-0.0002537468
0.75166646
-0.00021116332
0.75166612
-0.00017094985
0.75166165
-0.00013415841
0.75165359
-9.9904229e-05
0.75164309
-6.9580999e-05
0.75162949
-4.2665063e-05
0.7516133
-1.8534875e-05
0.75159619
1.1068082e-06
0.75157858
1.7628956e-05
0.75155963
3.2448256e-05
0.75154085
4.2802888e-05
0.75152132
5.2559728e-05
0.75150186
5.8975658e-05
0.75148325
6.3513387e-05
0.75146503
6.7026119e-05
0.75144732
6.8549639e-05
0.75143078
6.8904487e-05
0.75141367
6.9490495e-05
0.75139841
6.7477536e-05
0.75138324
6.6026177e-05
0.75136935
6.406949e-05
0.75135555
6.1123628e-05
0.75134303
5.8492086e-05
0.75133116
5.5662032e-05
0.7513193
5.2708484e-05
0.75130863
4.9092933e-05
0.75129791
4.6065064e-05
0.75128833
4.305876e-05
0.75127987
3.9499421e-05
0.75127069
3.7211774e-05
0.75126317
3.3812733e-05
0.75125484
3.1723736e-05
0.7512475
2.8553395e-05
0.75124052
2.6110402e-05
0.75123387
2.3794438e-05
0.75122815
2.1604281e-05
0.75122153
2.0139367e-05
0.75121579
1.7595986e-05
0.75121031
1.5774668e-05
0.75120505
1.4071361e-05
0.75120001
1.2481262e-05
0.75119516
1.1000765e-05
0.7511905
9.6277064e-06
0.75118602
8.3610546e-06
0.7511817
7.2006981e-06
0.75117753
6.1447417e-06
0.75117351
5.1902019e-06
0.7511696
4.3318291e-06
0.75116579
3.5626527e-06
0.75116209
2.8758404e-06
0.75115847
2.2645608e-06
0.75115493
1.7251018e-06
0.75115146
1.2560047e-06
0.75114805
8.5744896e-07
0.75114468
5.3277384e-07
0.75114135
2.7141389e-07
0.75113804
1.0311712e-07
-9.2546297e-08
0.7500011
-1.3355415e-05
0.75000499
-4.0688546e-05
0.75000988
-6.6987065e-05
0.75001819
-9.4783583e-05
0.75002816
-0.00012238913
0.75004044
-0.00015049674
0.75005569
-0.00017978767
0.75007279
-0.00020912945
0.75009241
-0.00023917147
0.75011526
-0.00027054272
0.75014024
-0.00030204605
0.75016866
-0.00033485659
0.75020004
-0.00036771719
0.75023448
-0.00040173279
0.7502715
-0.00043556666
0.750313
-0.00047083622
0.75035786
-0.00050490652
0.75040553
-0.00053868934
0.75045724
-0.00057303957
0.75051177
-0.00060515192
0.75057025
-0.00063636627
0.75063195
-0.00066496739
0.75069665
-0.00069159553
0.75076468
-0.00071505473
0.75083444
-0.00073352837
0.75090666
-0.00074880656
0.75097957
-0.00075849742
0.75105309
-0.00076206838
0.75112708
-0.00076027177
0.75119951
-0.00075157475
0.75127011
-0.00073639397
0.75133739
-0.00071471893
0.75140168
-0.00068673141
0.75146095
-0.00065221233
0.75151508
-0.00061294294
0.75156284
-0.00056787791
0.75160438
-0.00052032941
0.75163939
-0.00047010998
0.75166715
-0.00041708977
0.75168833
-0.00036475194
0.75170315
-0.00031292554
0.75171135
-0.00026194934
0.75171404
-0.00021384111
0.75171176
-0.00016866319
0.75170452
-0.00012691754
0.75169416
-8.9544851e-05
0.75168072
-5.6130791e-05
0.75166418
-2.612698e-05
0.75164692
-1.2761811e-06
0.75162766
2.0379964e-05
0.75160682
3.8465981e-05
0.75158602
5.3256841e-05
0.75156437
6.4455301e-05
0.75154395
7.2978318e-05
0.75152378
7.9142435e-05
0.75150345
8.3857789e-05
0.75148427
8.6215885e-05
0.75146513
8.7692802e-05
0.75144731
8.6733139e-05
0.75143084
8.5963558e-05
0.75141393
8.437774e-05
0.75139841
8.1545631e-05
0.75138426
7.8217586e-05
0.75137027
7.5121495e-05
0.75135762
7.1164393e-05
0.75134565
6.7640253e-05
0.75133434
6.4024061e-05
0.75132305
6.0378828e-05
0.75131296
5.6150903e-05
0.75130343
5.2581325e-05
0.75129384
4.9098429e-05
0.75128594
4.5124808e-05
0.75127728
4.2482309e-05
0.75127024
3.8777096e-05
0.75126237
3.6419878e-05
0.75125548
3.3007749e-05
0.75124893
3.0344489e-05
0.75124271
2.7831172e-05
0.75123679
2.606928e-05
0.75123115
2.3255616e-05
0.75122576
2.1188348e-05
0.7512206
1.925809e-05
0.75121564
1.7457119e-05
0.75121088
1.5777789e-05
0.75120631
1.4218012e-05
0.75120191
1.2777128e-05
0.75119766
1.1455359e-05
0.75119356
1.0252573e-05
0.75118959
9.1645137e-06
0.75118573
8.186791e-06
0.75118198
7.3112889e-06
0.75117833
6.5304329e-06
0.75117477
5.8371114e-06
0.75117128
5.2256992e-06
0.75116786
4.6946872e-06
0.7511645
4.2426273e-06
0.75116117
3.8728299e-06
0.75115787
3.5750191e-06
0.75115461
3.3743417e-06
3.1154131e-06
0.75000166
-1.4405183e-05
0.75000422
-4.3240673e-05
0.75001011
-7.2857424e-05
0.75001754
-0.00010220234
0.75002717
-0.00013200019
0.75003964
-0.00016295799
0.75005385
-0.00019397141
0.75007046
-0.0002257219
0.75009018
-0.00025887298
0.75011193
-0.00029226609
0.75013703
-0.00032711565
0.75016441
-0.00036220599
0.75019541
-0.00039868626
0.75022958
-0.00043586455
0.75026765
-0.00047360259
0.75030857
-0.00051171027
0.75035304
-0.00054933792
0.75040237
-0.00058797607
0.75045422
-0.00062484561
0.75051101
-0.00066189934
0.75057091
-0.00069622056
0.75063501
-0.00072902712
0.75070253
-0.00075907703
0.75077259
-0.00078507796
0.75084661
-0.00080751416
0.75092229
-0.00082445536
0.75099902
-0.00083519611
0.75107787
-0.00084089062
0.7511556
-0.00083797911
0.7512331
-0.00082904478
0.75130876
-0.00081203713
0.75138098
-0.0007869147
0.75144873
-0.00075446979
0.75151228
-0.00071574
0.75156895
-0.00066960036
0.75161984
-0.00061875472
0.75166322
-0.00056368673
0.75169873
-0.00050561292
0.75172747
-0.000445819
0.75174772
-0.00038499117
0.75176096
-0.00032615909
0.75176764
-0.00026862434
0.75176834
-0.00021453555
0.75176312
-0.00016344438
0.75175392
-0.00011770897
0.75174026
-7.5879899e-05
0.75172346
-3.9332912e-05
0.75170421
-6.879398e-06
0.75168315
1.9794643e-05
0.75166082
4.2715817e-05
0.7516377
6.1581766e-05
0.75161482
7.6139881e-05
0.75159191
8.736597e-05
0.75156925
9.5642032e-05
0.75154645
0.00010194622
0.75152549
0.00010483608
0.75150466
0.00010705557
0.75148524
0.00010711183
0.75146609
0.0001058851
0.75144842
0.0001036231
0.75143165
0.00010114322
0.75141637
9.6829744e-05
0.75140136
9.3247084e-05
0.75138717
8.9327607e-05
0.75137376
8.4583144e-05
0.7513617
7.9707907e-05
0.75134973
7.5981805e-05
0.75133964
7.0462292e-05
0.75132897
6.6807956e-05
0.7513195
6.2054978e-05
0.75131057
5.803821e-05
0.75130153
5.4178434e-05
0.75129415
4.9885049e-05
0.75128598
4.6964548e-05
0.75127941
4.3010586e-05
0.751272
4.0427027e-05
0.75126555
3.6811317e-05
0.75125942
3.397047e-05
0.75125419
3.1306692e-05
0.75124802
2.9418801e-05
0.75124271
2.6497844e-05
0.75123762
2.4336224e-05
0.75123275
2.2322687e-05
0.75122809
2.0449766e-05
0.7512236
1.8712298e-05
0.75121929
1.7108742e-05
0.75121513
1.5636734e-05
0.7512111
1.4293546e-05
0.7512072
1.3075578e-05
0.7512034
1.1976937e-05
0.75119972
1.0992853e-05
0.75119613
1.0116022e-05
0.75119262
9.3409965e-06
0.7511892
8.6622258e-06
0.75118584
8.0759465e-06
0.75118252
7.578918e-06
0.75117925
7.1728687e-06
0.751176
6.842676e-06
0.75117275
6.6423378e-06
6.3879424e-06
0.75000161
-1.5409087e-05
0.75000464
-4.6254733e-05
0.7500097
-7.7901106e-05
0.75001682
-0.0001093114
0.75002666
-0.00014182563
0.75003749
-0.000173767
0.75005178
-0.00020824689
0.75006784
-0.00024176319
0.75008699
-0.00027799633
0.75010875
-0.00031400218
0.75013267
-0.00035101016
0.75016071
-0.00039021775
0.75019124
-0.00042918291
0.75022503
-0.00046962175
0.75026227
-0.0005107983
0.75030371
-0.00055311767
0.75034894
-0.00059452129
0.75039808
-0.00063707786
0.75045186
-0.00067857812
0.75050913
-0.00071913104
0.75057111
-0.00075816371
0.75063714
-0.00079501844
0.75070707
-0.00082896306
0.75078123
-0.00085920272
0.75085804
-0.00088429509
0.7509376
-0.00090398036
0.75102044
-0.00091801314
0.75110338
-0.00092380111
0.75118728
-0.00092185687
0.75126991
-0.00091164393
0.75135012
-0.00089222649
0.75142794
-0.00086471858
0.7515016
-0.00082811118
0.75156877
-0.00078289747
0.75163026
-0.00073107273
0.75168342
-0.00067190115
0.75172884
-0.00060908565
0.75176612
-0.00054288409
0.75179394
-0.00047363663
0.75181425
-0.00040528969
0.75182619
-0.00033809651
0.75183033
-0.00027275684
0.75182797