/*--------------------------------*- C++ -*----------------------------------*\
| =========                 |                                                 |
| \\      /  F ield         | OpenFOAM: The Open Source CFD Toolbox           |
|  \\    /   O peration     | Version:  2406                                  |
|   \\  /    A nd           | Website:  www.openfoam.com                      |
|    \\/     M anipulation  |                                                 |
\*---------------------------------------------------------------------------*/
FoamFile
{
    version     2.0;
    format      ascii;
    arch        "LSB;label=32;scalar=64";
    class       volVectorField;
    location    "500";
    object      U;
}
// * * * * * * * * * * * * * * * * * * * * * * * * * * * * * * * * * * * * * //

dimensions      [0 1 -1 0 0 0 0];

internalField   nonuniform List<vector> 
16045
(
(30.000021 -2.9708096e-05 0)
(30.00016 -0.0001045498 0)
(30.00041 -0.00019764335 0)
(30.000762 -0.00030577101 0)
(30.001212 -0.0004266015 0)
(30.001758 -0.00055915714 0)
(30.002403 -0.00070284603 -9.4426586e-25)
(30.003148 -0.00085712437 0)
(30.003992 -0.0010214976 0)
(30.004937 -0.0011955301 0)
(30.005983 -0.0013787879 0)
(30.007129 -0.0015708019 0)
(30.008377 -0.0017710252 8.0647432e-25)
(30.009726 -0.0019788135 0)
(30.011174 -0.0021933964 0)
(30.012721 -0.0024138607 0)
(30.014362 -0.0026391226 0)
(30.016095 -0.0028679141 -3.0093416e-25)
(30.017916 -0.0030987759 -2.8422145e-25)
(30.019817 -0.0033300458 0)
(30.021792 -0.0035598741 0)
(30.023833 -0.0037862185 0)
(30.025929 -0.0040068796 0)
(30.028068 -0.0042195118 0)
(30.030239 -0.004421682 2.9773374e-25)
(30.032427 -0.0046109011 0)
(30.034618 -0.0047847059 1.8484549e-25)
(30.036794 -0.004940703 1.0421943e-26)
(30.038941 -0.005076665 8.3820715e-27)
(30.04104 -0.0051905828 -7.1976529e-27)
(30.043076 -0.0052807636 5.3496291e-28)
(30.04503 -0.0053458774 2.7746876e-27)
(30.046889 -0.0053850344 -4.4929735e-27)
(30.048638 -0.0053978217 1.3426318e-25)
(30.050264 -0.0053843272 -1.1844652e-26)
(30.051756 -0.0053451522 -2.0709409e-27)
(30.053107 -0.0052813972 1.3914484e-26)
(30.054309 -0.0051946206 0)
(30.055359 -0.0050867957 1.8837857e-26)
(30.056257 -0.0049602261 2.9565399e-25)
(30.057003 -0.0048174767 0)
(30.0576 -0.0046612693 0)
(30.058056 -0.0044944084 3.5730793e-25)
(30.058376 -0.0043196885 0)
(30.058571 -0.00413981 3.6969286e-25)
(30.05865 -0.0039573075 0)
(30.058624 -0.003774514 0)
(30.058504 -0.0035935256 0)
(30.058301 -0.0034161745 0)
(30.058027 -0.0032439827 0)
(30.057691 -0.0030781654 0)
(30.057305 -0.0029196654 0)
(30.056879 -0.0027692127 0)
(30.05642 -0.002627329 0)
(30.055937 -0.0024943132 0)
(30.055438 -0.0023702144 0)
(30.054929 -0.0022549006 0)
(30.054414 -0.0021481506 -2.7361948e-25)
(30.053899 -0.0020497326 0)
(30.053386 -0.0019593887 0)
(30.052879 -0.0018767617 0)
(30.052383 -0.0018013421 0)
(30.0519 -0.0017325331 0)
(30.051432 -0.0016697536 0)
(30.050978 -0.0016125504 0)
(30.050538 -0.0015605863 0)
(30.050112 -0.0015135508 -1.7433791e-25)
(30.0497 -0.0014710624 0)
(30.049305 -0.0014326417 0)
(30.048928 -0.0013977658 0)
(30.04857 -0.0013659751 0)
(30.048228 -0.001336922 0)
(30.0479 -0.0013103773 0)
(30.047584 -0.001286169 0)
(30.047279 -0.0012641176 0)
(30.046986 -0.0012440114 0)
(30.046708 -0.0012256119 0)
(30.046444 -0.0012086826 0)
(30.046194 -0.0011930216 0)
(30.045955 -0.0011784572 0)
(30.045724 -0.0011648512 0)
(30.0455 -0.0011520874 0)
(30.045283 -0.0011400698 0)
(30.045074 -0.0011287165 0)
(30.044874 -0.0011179542 0)
(30.044683 -0.0011077111 0)
(30.044502 -0.001097925 0)
(30.044327 -0.0010885324 0)
(30.044156 -0.0010794726 0)
(30.043989 -0.0010706829 0)
(30.043825 -0.0010621038 0)
(30.043665 -0.0010536773 0)
(30.043509 -0.0010453677 0)
(30.043359 -0.0010371602 0)
(30.043214 -0.001029093 0)
(30.043072 -0.0010211608 0)
(30.042936 -0.0010134933 0)
(30.042793 -0.0010058157 0)
(30.042685 -0.00099958334 0)
(30.042488 -0.00099232982 0)
(30.000014 -8.767288e-05 0)
(30.000125 -0.00028325429 0)
(30.000347 -0.00050251214 -9.940534e-25)
(30.000677 -0.0007401195 0)
(30.001106 -0.00099263214 0)
(30.001633 -0.0012590493 0)
(30.00226 -0.0015388918 9.4420168e-25)
(30.002988 -0.0018315569 0)
(30.003816 -0.0021364099 9.1366979e-25)
(30.004745 -0.0024528355 0)
(30.005776 -0.0027801539 0)
(30.006908 -0.0031175337 0)
(30.008143 -0.0034639348 -8.0640692e-25)
(30.00948 -0.0038180769 0)
(30.010918 -0.0041784017 0)
(30.012456 -0.0045430393 0)
(30.01409 -0.0049097758 -1.0007283e-24)
(30.015819 -0.0052760323 3.2595781e-25)
(30.017637 -0.0056388692 5.850756e-25)
(30.01954 -0.0059949916 -5.4762152e-25)
(30.021519 -0.0063407793 0)
(30.023568 -0.0066723155 0)
(30.025675 -0.006985451 8.0844833e-25)
(30.02783 -0.0072758731 3.5379191e-25)
(30.030021 -0.0075392159 -2.9770014e-25)
(30.032233 -0.0077711685 0)
(30.034451 -0.0079676181 -1.9524587e-25)
(30.036659 -0.0081247839 0)
(30.038841 -0.0082393761 0)
(30.040979 -0.0083087287 0)
(30.043055 -0.0083309473 -6.2489485e-27)
(30.045052 -0.0083050117 6.2485428e-27)
(30.046955 -0.0082308716 0)
(30.048747 -0.0081094881 -9.5823089e-26)
(30.050416 -0.0079428375 -3.8423914e-26)
(30.051951 -0.0077338702 0)
(30.053341 -0.0074864269 -3.1965687e-26)
(30.05458 -0.0072051114 -3.3863819e-27)
(30.055663 -0.0068951328 3.5350235e-26)
(30.05659 -0.0065621093 6.6067513e-27)
(30.05736 -0.0062118707 0)
(30.057978 -0.0058502684 0)
(30.058449 -0.0054830014 7.1032764e-27)
(30.05878 -0.0051154337 0)
(30.058981 -0.0047524265 -3.6966963e-25)
(30.059062 -0.0043982463 0)
(30.059035 -0.0040565586 3.7760035e-25)
(30.05891 -0.0037304239 0)
(30.0587 -0.0034222354 0)
(30.058416 -0.0031336471 -3.6284326e-25)
(30.058069 -0.0028656356 3.5466064e-25)
(30.05767 -0.002618693 0)
(30.05723 -0.0023929959 0)
(30.056756 -0.0021883876 0)
(30.056259 -0.0020042499 -1.5276896e-25)
(30.055745 -0.0018394843 -1.4758078e-25)
(30.055221 -0.0016927611 0)
(30.054692 -0.0015628541 2.7360992e-25)
(30.054163 -0.001448774 0)
(30.053637 -0.0013495705 0)
(30.053118 -0.0012640003 0)
(30.05261 -0.0011904244 -2.2786651e-25)
(30.052116 -0.0011270833 0)
(30.051638 -0.0010725323 0)
(30.051175 -0.0010259003 0)
(30.050726 -0.00098673556 0)
(30.050292 -0.0009545912 1.7433173e-25)
(30.049873 -0.00092868001 0)
(30.049471 -0.00090783732 0)
(30.049089 -0.0008908065 0)
(30.048725 -0.00087661215 -1.3923139e-25)
(30.048379 -0.00086474048 0)
(30.048047 -0.00085507076 0)
(30.047727 -0.00084760615 0)
(30.047418 -0.00084222248 0)
(30.047122 -0.00083858825 0)
(30.04684 -0.0008362326 0)
(30.046574 -0.00083471025 0)
(30.046322 -0.000833704 0)
(30.046082 -0.00083302056 0)
(30.045849 -0.00083254627 0)
(30.045624 -0.00083218446 0)
(30.045405 -0.00083185276 0)
(30.045194 -0.0008314825 0)
(30.044993 -0.00083102897 0)
(30.044802 -0.00083048262 0)
(30.04462 -0.00082985993 0)
(30.044444 -0.00082917329 0)
(30.044273 -0.00082838348 0)
(30.044105 -0.00082738352 0)
(30.043941 -0.00082601124 0)
(30.04378 -0.00082410439 0)
(30.043624 -0.00082158843 0)
(30.043474 -0.00081854352 0)
(30.043329 -0.00081520486 0)
(30.043187 -0.00081179324 0)
(30.043051 -0.00080853721 0)
(30.042906 -0.00080548032 0)
(30.042798 -0.00080330935 0)
(30.042588 -0.00080213709 0)
(30.000012 -0.00013964258 0)
(30.000115 -0.00042534143 0)
(30.00033 -0.00072088558 9.9404491e-25)
(30.000655 -0.0010257723 0)
(30.00108 -0.0013396837 0)
(30.001603 -0.0016632353 0)
(30.002227 -0.0019969985 4.7198425e-25)
(30.00295 -0.0023411147 -4.7196664e-25)
(30.003775 -0.0026954522 -9.1364436e-25)
(30.004701 -0.0030597036 0)
(30.005729 -0.0034333435 0)
(30.00686 -0.0038155569 0)
(30.008094 -0.0042052003 8.2071877e-25)
(30.009431 -0.0046007793 0)
(30.010871 -0.0050004225 0)
(30.012412 -0.005401842 3.7228531e-25)
(30.014052 -0.0058023088 1.0229418e-24)
(30.015789 -0.0061986439 0)
(30.017617 -0.0065872339 -5.9939029e-25)
(30.019533 -0.0069640588 5.4758528e-25)
(30.021529 -0.0073247275 -2.3973488e-25)
(30.023596 -0.0076645302 4.8419254e-25)
(30.025727 -0.0079785287 2.2686211e-25)
(30.027908 -0.0082616586 3.6403312e-25)
(30.030127 -0.0085088714 0)
(30.032371 -0.0087152988 5.0844703e-25)
(30.034624 -0.0088764186 0)
(30.036869 -0.0089882417 2.970572e-25)
(30.039089 -0.0090474906 0)
(30.041265 -0.0090517818 9.9967203e-26)
(30.043379 -0.0089997699 -1.4727807e-26)
(30.045415 -0.0088912831 0)
(30.047353 -0.0087273942 -2.9632035e-26)
(30.049179 -0.0085104476 2.9630477e-26)
(30.050878 -0.0082440164 0)
(30.052438 -0.0079328207 -2.1868142e-25)
(30.053848 -0.0075825704 -6.5796123e-26)
(30.055103 -0.007199775 6.5794478e-26)
(30.056196 -0.0067914923 0)
(30.057127 -0.0063650501 8.3650663e-27)
(30.057897 -0.0059277989 3.475569e-25)
(30.058508 -0.0054868922 -3.6195425e-25)
(30.058969 -0.005049062 -3.6437451e-25)
(30.059286 -0.0046203764 7.6033702e-25)
(30.059469 -0.0042060495 3.8442213e-25)
(30.05953 -0.003810404 0)
(30.05948 -0.0034369472 3.9154546e-25)
(30.059333 -0.0030883912 -3.8104741e-25)
(30.059099 -0.0027665432 -1.8422289e-25)
(30.058791 -0.0024722561 5.4707025e-25)
(30.058421 -0.0022056099 -3.5466131e-25)
(30.057999 -0.0019662565 0)
(30.057537 -0.001753588 0)
(30.057043 -0.0015665883 0)
(30.056528 -0.0014036048 0)
(30.055997 -0.0012624805 1.5291442e-25)
(30.055459 -0.0011410725 6.1820466e-27)
(30.054916 -0.0010377458 4.1905004e-25)
(30.054375 -0.00095133101 0)
(30.053838 -0.00088055899 0)
(30.053311 -0.00082352013 0)
(30.052796 -0.00077772471 2.2786892e-25)
(30.052297 -0.0007407726 -2.1718509e-25)
(30.051814 -0.0007111095 0)
(30.051347 -0.00068820688 -1.9544509e-25)
(30.050895 -0.00067203892 0)
(30.050457 -0.00066227486 0)
(30.050036 -0.00065780052 0)
(30.049633 -0.00065690093 0)
(30.049251 -0.00065791428 0)
(30.048888 -0.00065984671 1.3923229e-25)
(30.048543 -0.00066254879 0)
(30.04821 -0.00066638611 -1.2394266e-25)
(30.04789 -0.0006716925 0)
(30.047581 -0.00067839044 0)
(30.047285 -0.00068597924 0)
(30.047005 -0.00069380795 0)
(30.046741 -0.00070139989 0)
(30.04649 -0.0007085703 0)
(30.04625 -0.0007153269 0)
(30.046019 -0.00072168002 0)
(30.045794 -0.00072753871 0)
(30.045577 -0.00073275258 0)
(30.045367 -0.0007372161 0)
(30.045167 -0.0007409592 0)
(30.044977 -0.00074416408 0)
(30.044796 -0.00074708938 0)
(30.044621 -0.00074993286 0)
(30.044451 -0.0007526892 0)
(30.044284 -0.00075510659 0)
(30.04412 -0.00075676238 0)
(30.043961 -0.00075725493 0)
(30.043806 -0.00075641141 0)
(30.043656 -0.00075442989 0)
(30.043512 -0.00075182128 0)
(30.04337 -0.00074913733 0)
(30.043234 -0.00074680781 0)
(30.04309 -0.00074491901 0)
(30.04298 -0.00074378423 0)
(30.042779 -0.00074346398 0)
(30.000011 -0.00018560744 0)
(30.000109 -0.00055953464 0)
(30.000315 -0.00094135211 0)
(30.000629 -0.0013340842 0)
(30.001043 -0.0017388134 0)
(30.001554 -0.0021561909 0)
(30.002164 -0.002586721 0)
(30.002874 -0.003030581 0)
(30.003685 -0.0034876136 0)
(30.004598 -0.0039573828 0)
(30.005614 -0.0044391484 0)
(30.006733 -0.0049318104 0)
(30.007957 -0.0054338558 -1.2461305e-24)
(30.009286 -0.0059433185 -4.0498346e-25)
(30.010719 -0.0064577342 0)
(30.012255 -0.0069740971 -2.1814449e-24)
(30.013894 -0.0074888258 6.9226656e-25)
(30.015633 -0.0079977578 -1.6162047e-24)
(30.017468 -0.0084961572 9.1213952e-25)
(30.019393 -0.0089787455 0)
(30.021404 -0.0094397457 1.0334912e-24)
(30.023491 -0.0098729568 -4.597698e-25)
(30.025646 -0.010271864 -8.1988801e-25)
(30.027857 -0.010629782 1.2956998e-26)
(30.030111 -0.010940042 0)
(30.032395 -0.011196206 -6.2361188e-25)
(30.034692 -0.011392294 5.2414841e-25)
(30.036985 -0.011523038 -2.9703327e-25)
(30.039256 -0.011584116 0)
(30.041487 -0.011572403 -1.8606832e-27)
(30.043657 -0.011486172 4.8197529e-27)
(30.045747 -0.011325271 3.8348352e-26)
(30.04774 -0.011091224 1.6919398e-25)
(30.049618 -0.010787258 0)
(30.051366 -0.010418259 0)
(30.05297 -0.0099906509 2.1866626e-25)
(30.05442 -0.0095121927 0)
(30.055707 -0.0089916993 -7.4631185e-26)
(30.056827 -0.0084386847 7.4630083e-26)
(30.057777 -0.0078629928 -3.2940486e-25)
(30.05856 -0.0072744795 1.1418534e-26)
(30.059178 -0.0066827124 -3.8472325e-25)
(30.059638 -0.0060966392 7.6789309e-25)
(30.05995 -0.0055242571 2.173221e-26)
(30.060123 -0.004972407 4.0523399e-25)
(30.06017 -0.0044467584 7.912843e-25)
(30.060103 -0.003951865 1.8451719e-26)
(30.059935 -0.0034911284 3.8104234e-25)
(30.05968 -0.0030666966 -7.6667249e-25)
(30.05935 -0.0026795363 0)
(30.058957 -0.002329745 0)
(30.058512 -0.0020168813 -7.1063034e-25)
(30.058028 -0.0017399849 0)
(30.057513 -0.0014973435 0)
(30.056977 -0.001286443 0)
(30.056429 -0.0011044095 0)
(30.055873 -0.00094870657 0)
(30.055314 -0.00081745293 -2.7778496e-25)
(30.054757 -0.00070901649 -6.6427925e-25)
(30.054207 -0.00062125051 3.8436299e-25)
(30.053667 -0.00055115393 -2.4174027e-25)
(30.053143 -0.00049535826 -2.2961779e-25)
(30.052635 -0.00045111389 2.1718641e-25)
(30.052145 -0.00041694141 0)
(30.05167 -0.00039241008 -3.7860576e-28)
(30.05121 -0.00037721489 -1.8526395e-25)
(30.050766 -0.00037029485 0)
(30.050339 -0.00036964739 0)
(30.049933 -0.00037293586 0)
(30.049548 -0.00037838268 0)
(30.049183 -0.00038529084 0)
(30.048835 -0.00039387257 0)
(30.0485 -0.00040457208 1.2394282e-25)
(30.048176 -0.00041740405 -1.1640669e-25)
(30.047865 -0.00043174487 0)
(30.047568 -0.00044662194 0)
(30.047287 -0.00046123522 0)
(30.047022 -0.00047528152 0)
(30.046771 -0.00048889681 0)
(30.04653 -0.00050230766 0)
(30.046298 -0.00051548228 0)
(30.046073 -0.00052806106 0)
(30.045855 -0.00053954944 0)
(30.045645 -0.00054964051 0)
(30.045445 -0.00055841074 0)
(30.045255 -0.00056629799 0)
(30.045073 -0.00057387494 0)
(30.044897 -0.00058153056 0)
(30.044727 -0.00058924589 0)
(30.04456 -0.00059654512 0)
(30.044397 -0.00060270885 0)
(30.044238 -0.0006070943 0)
(30.044084 -0.00060944141 0)
(30.043935 -0.00061000032 0)
(30.04379 -0.00060943521 0)
(30.043647 -0.00060853688 0)
(30.043511 -0.00060791208 0)
(30.043365 -0.0006078194 0)
(30.043257 -0.00060814652 0)
(30.043044 -0.00060969922 0)
(30.000011 -0.00022924231 0)
(30.000105 -0.00068970208 0)
(30.000304 -0.001156364 0)
(30.00061 -0.0016322078 0)
(30.001015 -0.0021184046 0)
(30.001517 -0.0026156127 -9.8841007e-25)
(30.002118 -0.0031244925 0)
(30.002819 -0.0036455014 0)
(30.003622 -0.0041787239 0)
(30.004528 -0.0047238644 9.1896153e-25)
(30.005537 -0.0052802337 -8.9563107e-25)
(30.006651 -0.0058466956 1.7396937e-24)
(30.007871 -0.0064215971 8.3042e-25)
(30.009198 -0.0070027133 0)
(30.010632 -0.0075871919 7.7750394e-25)
(30.012172 -0.0081715133 1.1027145e-24)
(30.013819 -0.0087514514 -6.7250915e-25)
(30.015569 -0.0093220685 2.9667823e-24)
(30.017419 -0.0098777225 1.2386884e-24)
(30.019366 -0.010412103 8.7545234e-25)
(30.021403 -0.010918289 -7.6121785e-25)
(30.023523 -0.011388846 9.5296931e-25)
(30.025715 -0.011815964 0)
(30.027971 -0.012191651 -7.3064345e-25)
(30.030275 -0.012507952 6.3561413e-25)
(30.032614 -0.012757231 -1.0507919e-24)
(30.034971 -0.012932453 -4.0891705e-25)
(30.037329 -0.013027506 0)
(30.039667 -0.0130375 0)
(30.041966 -0.012959082 -4.7521933e-27)
(30.044205 -0.012790692 3.9946915e-26)
(30.046363 -0.012532773 -5.9175656e-26)
(30.048421 -0.0121879 -3.8813077e-25)
(30.050359 -0.011760793 -2.4405044e-25)
(30.052161 -0.011258255 1.9384637e-25)
(30.053812 -0.010688992 1.8285826e-26)
(30.0553 -0.010063332 -1.2525579e-25)
(30.056616 -0.009392826 -3.0529468e-25)
(30.057756 -0.0086897814 0)
(30.058716 -0.0079667948 3.5472219e-25)
(30.059499 -0.0072363215 3.8713973e-25)
(30.060108 -0.0065102512 1.5210613e-24)
(30.060553 -0.0057994706 -7.678596e-25)
(30.060841 -0.0051135183 2.5897639e-26)
(30.060985 -0.0044604076 -2.4178471e-24)
(30.060998 -0.0038465958 2.2867508e-26)
(30.060894 -0.003276946 -7.8756156e-25)
(30.060687 -0.0027546837 7.9836501e-25)
(30.060392 -0.0022814666 7.6666172e-25)
(30.060022 -0.0018576765 0)
(30.059589 -0.0014827635 7.4536509e-25)
(30.059106 -0.0011553846 1.4329819e-24)
(30.058586 -0.00087328492 6.9762881e-25)
(30.058037 -0.00063325958 6.717242e-25)
(30.057471 -0.00043152715 0)
(30.056894 -0.00026442433 0)
(30.056312 -0.00012889024 -5.9089953e-25)
(30.05573 -2.2288285e-05 0)
(30.055153 5.8274749e-05 5.3418714e-25)
(30.054584 0.0001164373 -2.5426794e-25)
(30.05403 0.00015632548 2.4173914e-25)
(30.053493 0.00018164559 2.2961646e-25)
(30.052975 0.00019486304 -2.1810191e-25)
(30.052475 0.00019716603 -2.0664668e-25)
(30.051992 0.00018925759 1.958233e-25)
(30.051525 0.00017237329 4.1839121e-28)
(30.051075 0.00014871743 0)
(30.050645 0.00012100814 -1.6470111e-25)
(30.050238 9.1516382e-05 0)
(30.049852 6.1315286e-05 0)
(30.049486 3.0297426e-05 0)
(30.049136 -2.1115725e-06 0)
(30.0488 -3.6069129e-05 0)
(30.048476 -7.0877305e-05 1.1640674e-25)
(30.048165 -0.00010524131 -1.0870236e-25)
(30.047869 -0.00013795875 0)
(30.04759 -0.00016853224 0)
(30.047327 -0.00019727762 0)
(30.047076 -0.00022492176 0)
(30.046836 -0.00025198597 0)
(30.046605 -0.00027837771 0)
(30.046381 -0.00030342767 0)
(30.046166 -0.00032629896 0)
(30.045958 -0.00034650823 0)
(30.04576 -0.00036420098 0)
(30.045571 -0.00038007279 0)
(30.045389 -0.00039498755 0)
(30.045214 -0.00040953656 0)
(30.045045 -0.0004237652 0)
(30.04488 -0.00043717736 0)
(30.044719 -0.00044902536 0)
(30.044563 -0.00045869074 0)
(30.04441 -0.00046595365 0)
(30.044262 -0.00047105879 0)
(30.044118 -0.0004745989 0)
(30.043976 -0.00047731411 0)
(30.04384 -0.00047977968 0)
(30.043695 -0.0004823741 0)
(30.043586 -0.00048453973 0)
(30.043384 -0.00048809728 0)
(30.000011 -0.00027129277 0)
(30.000101 -0.00081548596 0)
(30.000295 -0.001364849 0)
(30.000593 -0.0019226076 0)
(30.000988 -0.0024907736 0)
(30.00148 -0.0030707563 9.883933e-25)
(30.00207 -0.003663755 -9.8612908e-25)
(30.00276 -0.004270639 9.7022745e-25)
(30.003551 -0.0048917953 0)
(30.004445 -0.0055271086 -9.1893423e-25)
(30.005443 -0.0061759517 1.8038442e-24)
(30.006547 -0.006837134 -3.5049895e-24)
(30.007759 -0.0075088276 0)
(30.009079 -0.0081885051 -2.0480716e-24)
(30.010509 -0.0088728767 -7.6022744e-25)
(30.01205 -0.0095578428 3.8289318e-25)
(30.0137 -0.010238455 0)
(30.015459 -0.01090889 2.5598139e-26)
(30.017324 -0.011562457 -1.5398228e-24)
(30.019291 -0.01219163 3.2490003e-25)
(30.021354 -0.01278812 -2.1490782e-24)
(30.023508 -0.01334299 -1.4084341e-24)
(30.025741 -0.013846813 2.1921541e-24)
(30.028045 -0.014289906 0)
(30.030404 -0.014662599 -1.7859133e-24)
(30.032806 -0.01495557 9.0409374e-25)
(30.035231 -0.015160195 8.4051742e-25)
(30.037662 -0.015268945 1.2430067e-25)
(30.040078 -0.015275782 -5.5749106e-26)
(30.042457 -0.015176535 -1.0783793e-26)
(30.044777 -0.014969242 -8.7262026e-27)
(30.047014 -0.014654413 -8.9977952e-26)
(30.049148 -0.014235194 4.1477105e-25)
(30.051158 -0.013717409 2.9534905e-25)
(30.053024 -0.013109468 0)
(30.05473 -0.012422145 -1.3132347e-25)
(30.056264 -0.011668194 1.3132093e-25)
(30.057616 -0.010861848 6.2651474e-25)
(30.058779 -0.010018253 0)
(30.059752 -0.0091528833 -1.6917688e-25)
(30.060537 -0.0082809518 -1.7111904e-24)
(30.061138 -0.0074168255 3.3033747e-26)
(30.061565 -0.006573519 0)
(30.061828 -0.0057623662 3.0558951e-26)
(30.061941 -0.0049928449 -5.7582303e-26)
(30.061918 -0.0042724379 -1.0197381e-24)
(30.061774 -0.0036065159 2.0563986e-25)
(30.061526 -0.0029983899 -7.9834936e-25)
(30.061188 -0.0024496232 0)
(30.060776 -0.0019604298 1.5676145e-24)
(30.060302 -0.0015298665 -7.4535925e-25)
(30.05978 -0.0011557522 -2.1937867e-24)
(30.059222 -0.00083465306 -6.9762681e-25)
(30.05864 -0.0005622936 -6.7172353e-25)
(30.058044 -0.00033432039 0)
(30.057439 -0.00014689584 6.2455079e-25)
(30.056832 3.3904356e-06 1.1868806e-24)
(30.056227 0.00012017249 0)
(30.05563 0.00020783557 5.3965678e-25)
(30.055046 0.0002713186 0)
(30.054479 0.00031519236 0)
(30.053931 0.0003427354 -2.30378e-25)
(30.053404 0.00035576713 2.1809615e-25)
(30.052895 0.00035540095 1.4285103e-28)
(30.052404 0.00034317135 -1.9520336e-25)
(30.051931 0.00032166039 1.8483979e-25)
(30.051477 0.00029415701 -1.7395422e-25)
(30.051046 0.00026361359 1.6469756e-25)
(30.050638 0.00023164849 -1.5481656e-25)
(30.050251 0.00019835154 0)
(30.049883 0.00016298298 -1.3776137e-25)
(30.049531 0.00012509738 0)
(30.049194 8.5313527e-05 0)
(30.04887 4.525155e-05 0)
(30.048561 6.7739873e-06 1.0870109e-25)
(30.048267 -2.8952274e-05 -1.0138968e-25)
(30.047989 -6.1906062e-05 0)
(30.047726 -9.2989602e-05 0)
(30.047475 -0.00012331591 0)
(30.047236 -0.00015348396 0)
(30.047005 -0.00018326168 0)
(30.046783 -0.00021174352 0)
(30.046569 -0.00023789901 0)
(30.046364 -0.0002611056 0)
(30.046167 -0.00028142488 0)
(30.045978 -0.0002994806 0)
(30.045797 -0.00031606346 0)
(30.045622 -0.00033173232 0)
(30.045453 -0.00034657592 0)
(30.045289 -0.00036027867 0)
(30.04513 -0.00037236819 0)
(30.044975 -0.00038251029 0)
(30.044824 -0.0003906647 0)
(30.044676 -0.00039706159 0)
(30.044532 -0.00040210736 0)
(30.04439 -0.00040625135 0)
(30.044254 -0.00040979244 0)
(30.044109 -0.00041297093 0)
(30.044001 -0.00041518492 0)
(30.04379 -0.00041856972 0)
(30.00001 -0.00031200598 0)
(30.000098 -0.00093749957 0)
(30.000286 -0.0015678203 0)
(30.000576 -0.0022063526 -1.0325359e-24)
(30.000963 -0.002855518 0)
(30.001444 -0.0035170342 -1.0125766e-24)
(30.002023 -0.0041922571 9.8610903e-25)
(30.002701 -0.004882172 -9.7020564e-25)
(30.00348 -0.0055872776 0)
(30.004363 -0.0063075293 0)
(30.00535 -0.0070423009 -9.0821368e-25)
(30.006445 -0.007790322 3.1219394e-24)
(30.00765 -0.008549591 -1.3008798e-24)
(30.008966 -0.0093172994 1.2406743e-24)
(30.010395 -0.010089757 1.6284044e-24)
(30.011939 -0.010862324 3.8981962e-25)
(30.013597 -0.011629357 0)
(30.01537 -0.012384168 -1.3505332e-24)
(30.017255 -0.013119025 0)
(30.019249 -0.013825183 -8.8754901e-25)
(30.021348 -0.014492966 1.3478142e-24)
(30.023545 -0.015111884 -1.4748982e-24)
(30.025831 -0.015670835 4.5185588e-25)
(30.028195 -0.016158362 -7.6681532e-25)
(30.030625 -0.016562978 2.9770252e-24)
(30.033104 -0.016873559 -8.4955527e-25)
(30.035615 -0.017079793 -1.0809283e-24)
(30.038137 -0.017172654 1.2347993e-25)
(30.040649 -0.017144899 -1.2346969e-25)
(30.043126 -0.01699155 -2.933805e-25)
(30.045545 -0.016710317 0)
(30.047879 -0.016301942 0)
(30.050106 -0.015770409 2.8613489e-25)
(30.052201 -0.015123022 -1.9713226e-25)
(30.054144 -0.014370281 4.2496643e-25)
(30.055917 -0.013525591 0)
(30.057504 -0.012604766 0)
(30.058895 -0.011625408 -6.6178631e-25)
(30.060083 -0.010606206 1.8481828e-25)
(30.061067 -0.009566174 -1.8482024e-25)
(30.061848 -0.0085238637 1.5992247e-24)
(30.062434 -0.0074966168 -8.0737837e-25)
(30.062833 -0.0065000109 0)
(30.06306 -0.0055474975 -8.3839846e-25)
(30.063128 -0.0046501312 1.6856806e-24)
(30.063055 -0.0038163359 0)
(30.062857 -0.0030518438 1.7226305e-24)
(30.062552 -0.0023599615 0)
(30.062157 -0.0017420403 0)
(30.061688 -0.0011977897 -1.5675902e-24)
(30.061159 -0.00072526827 1.5554271e-24)
(30.060585 -0.00032083261 1.2891136e-24)
(30.059979 2.047227e-05 3.5755895e-25)
(30.059352 0.00030403917 1.2071796e-24)
(30.058715 0.00053487156 1.3219863e-24)
(30.058072 0.00071745898 -6.2452786e-25)
(30.057431 0.00085639808 -5.9596684e-25)
(30.056797 0.00095707259 5.7078263e-25)
(30.056175 0.0010256073 2.0957085e-27)
(30.05557 0.0010679607 0)
(30.054985 0.00108879 0)
(30.054422 0.0010910191 2.3036986e-25)
(30.053879 0.0010764443 0)
(30.053358 0.0010469475 7.2055497e-28)
(30.052857 0.0010054176 5.8375941e-25)
(30.052377 0.00095568664 -1.8331339e-25)
(30.05192 0.00090157214 1.7394896e-25)
(30.051486 0.00084568561 0)
(30.051075 0.00078884975 1.0895672e-27)
(30.050686 0.00073055324 -1.4491095e-25)
(30.050315 0.00067007245 1.3775773e-25)
(30.049961 0.00060758076 0)
(30.049623 0.00054449054 0)
(30.0493 0.00048291654 0)
(30.048994 0.00042469433 0)
(30.048702 0.00037058453 1.0138755e-25)
(30.048426 0.00032017229 -9.4234561e-26)
(30.048163 0.00027235754 0)
(30.047912 0.00022610572 0)
(30.047673 0.00018098173 0)
(30.047444 0.0001372491 0)
(30.047225 9.5619546e-05 0)
(30.047014 5.68217e-05 0)
(30.046811 2.1272516e-05 0)
(30.046616 -1.1037366e-05 0)
(30.046429 -4.0438259e-05 0)
(30.046249 -6.7336368e-05 0)
(30.046075 -9.2014366e-05 0)
(30.045908 -0.0001145426 0)
(30.045746 -0.00013484215 0)
(30.045589 -0.00015283287 0)
(30.045435 -0.00016853989 0)
(30.045285 -0.00018214243 0)
(30.045139 -0.00019390928 0)
(30.044996 -0.00020411519 0)
(30.044855 -0.00021299687 0)
(30.04472 -0.00022060723 0)
(30.044576 -0.00022732911 0)
(30.044468 -0.0002322055 0)
(30.044267 -0.00023915746 0)
(30.00001 -0.0003514997 0)
(30.000095 -0.0010559812 0)
(30.000278 -0.001765276 -5.2122156e-25)
(30.00056 -0.0024829207 1.5537275e-24)
(30.000937 -0.0032116689 0)
(30.001407 -0.0039536164 1.0125594e-24)
(30.001973 -0.004710477 1.0140069e-24)
(30.002638 -0.0054835839 0)
(30.003404 -0.0062737626 0)
(30.004273 -0.0070812372 0)
(30.005248 -0.0079055609 -4.5875996e-25)
(30.006331 -0.0087455411 4.914132e-25)
(30.007526 -0.0095991491 1.7385272e-24)
(30.008836 -0.010463421 1.7109807e-24)
(30.010262 -0.01133437 2.0762074e-24)
(30.011807 -0.012206889 -3.9774992e-25)
(30.013472 -0.013074682 0)
(30.015258 -0.013930217 0)
(30.017163 -0.014764706 0)
(30.019186 -0.015568135 1.874801e-24)
(30.021322 -0.016329335 5.8117219e-25)
(30.023566 -0.017036124 3.5594137e-24)
(30.025909 -0.01767551 -1.299976e-24)
(30.028341 -0.018233998 1.9577899e-24)
(30.030848 -0.018697966 -1.6885973e-24)
(30.033415 -0.019054129 1.0899639e-24)
(30.036022 -0.019290083 1.7307499e-24)
(30.038648 -0.019394883 0)
(30.041269 -0.019359659 -1.2524031e-25)
(30.043859 -0.019178218 2.6354191e-25)
(30.046391 -0.018847582 -5.4844012e-26)
(30.048837 -0.018368436 1.6528131e-25)
(30.05117 -0.017745415 -1.0539539e-24)
(30.053364 -0.016987205 -1.6310454e-25)
(30.055394 -0.016106411 -4.8522846e-25)
(30.057241 -0.015119182 2.5740713e-25)
(30.058886 -0.01404461 0)
(30.06032 -0.012903959 1.5812572e-25)
(30.061533 -0.011719767 1.8241437e-25)
(30.062525 -0.010514857 0)
(30.063299 -0.0093113431 9.119334e-25)
(30.063862 -0.0081297719 1.7828944e-24)
(30.064226 -0.0069884761 1.8150671e-24)
(30.064406 -0.0059030765 0)
(30.064419 -0.0048860773 0)
(30.064285 -0.0039466467 -1.8127324e-24)
(30.064023 -0.0030907586 -1.7225773e-24)
(30.063652 -0.0023216539 0)
(30.063191 -0.0016402934 0)
(30.062657 -0.0010455009 1.64933e-24)
(30.062066 -0.00053394395 -1.5554088e-24)
(30.061435 -0.00010041718 1.5306363e-24)
(30.060776 0.00026131002 1.4673037e-24)
(30.060101 0.00055747706 1.9048472e-25)
(30.059419 0.0007938522 -1.3297347e-24)
(30.058737 0.00097608888 -1.6223135e-25)
(30.058062 0.0011104231 0)
(30.057399 0.0012038758 -5.7075811e-25)
(30.056753 0.001263571 -5.4170938e-25)
(30.056128 0.0012956008 0)
(30.055527 0.001304337 4.8642522e-25)
(30.054949 0.0012927084 4.5964995e-25)
(30.054394 0.0012632166 4.3401341e-25)
(30.053862 0.0012189541 2.0576421e-25)
(30.053354 0.0011638469 -2.3124683e-27)
(30.052871 0.0011020526 5.4746192e-25)
(30.052413 0.0010369244 1.7163273e-25)
(30.051979 0.00097026414 0)
(30.051566 0.00090240887 1.5371812e-25)
(30.051175 0.00083300288 1.4490663e-25)
(30.050802 0.00076204322 0)
(30.050449 0.00069046219 0)
(30.050113 0.00061995513 0)
(30.049794 0.00055228339 0)
(30.049491 0.00048849955 0)
(30.049203 0.00042870781 0)
(30.048929 0.00037232471 9.4232145e-26)
(30.048667 0.00031865719 0)
(30.048418 0.00026735073 0)
(30.048181 0.00021846376 0)
(30.047955 0.00017229986 0)
(30.047738 0.00012911458 0)
(30.04753 8.8994431e-05 0)
(30.047329 5.1860926e-05 0)
(30.047137 1.7565001e-05 0)
(30.046952 -1.4014209e-05 0)
(30.046774 -4.2957971e-05 0)
(30.046603 -6.9304409e-05 0)
(30.046438 -9.310034e-05 0)
(30.046278 -0.00011442429 0)
(30.046122 -0.00013338156 0)
(30.04597 -0.00015009944 0)
(30.045822 -0.00016467304 0)
(30.045677 -0.0001771501 0)
(30.045536 -0.00018749263 0)
(30.045396 -0.00019563243 0)
(30.045262 -0.0002015321 0)
(30.045119 -0.00020553293 0)
(30.045012 -0.00020756187 0)
(30.044806 -0.00021063115 0)
(30.00001 -0.00038978474 0)
(30.000092 -0.0011709011 0)
(30.000269 -0.0019570333 1.0682116e-24)
(30.000543 -0.0027519599 0)
(30.000909 -0.0035587818 0)
(30.001367 -0.0043799816 1.0429873e-24)
(30.00192 -0.0052176338 -1.0139881e-24)
(30.00257 -0.0060733903 -2.0307615e-24)
(30.003321 -0.0069483498 0)
(30.004175 -0.007842947 0)
(30.005135 -0.0087568742 0)
(30.006206 -0.0096889914 3.6287168e-26)
(30.00739 -0.010637223 0)
(30.008692 -0.01159844 1.7854777e-24)
(30.010114 -0.012568338 -3.28935e-24)
(30.011661 -0.013541333 -2.8327096e-24)
(30.013333 -0.014510458 -3.8789443e-25)
(30.015133 -0.015467305 0)
(30.017062 -0.016401978 0)
(30.019117 -0.01730311 -1.8592132e-24)
(30.021297 -0.018157921 -5.9658298e-25)
(30.023595 -0.018952362 -6.249643e-24)
(30.026004 -0.019671339 -3.7508766e-24)
(30.028515 -0.020299046 -1.5935203e-24)
(30.031113 -0.020819411 6.2437833e-25)
(30.033782 -0.021216636 1.6526358e-24)
(30.036502 -0.021475847 -1.3585375e-24)
(30.03925 -0.021583793 -3.7198658e-25)
(30.042001 -0.02152961 0)
(30.044724 -0.021305572 0)
(30.047391 -0.020907783 3.0171177e-26)
(30.049969 -0.020336761 -1.1720874e-25)
(30.052428 -0.019597819 4.6895646e-25)
(30.054738 -0.01870122 7.6106663e-25)
(30.056872 -0.017662024 7.180247e-25)
(30.058805 -0.016499644 2.7837607e-25)
(30.06052 -0.01523712 0)
(30.062002 -0.013900144 0)
(30.063243 -0.012515884 0)
(30.064243 -0.01111173 0)
(30.065005 -0.0097140979 1.0705193e-25)
(30.065538 -0.0083474111 -1.7827633e-24)
(30.065857 -0.0070332722 -1.8149483e-24)
(30.065979 -0.0057897721 3.8447067e-24)
(30.065926 -0.0046310177 0)
(30.065717 -0.0035670505 5.5945474e-24)
(30.065377 -0.0026041883 0)
(30.064926 -0.0017455252 -3.6198194e-24)
(30.064386 -0.00099127159 3.5120457e-24)
(30.063774 -0.0003389007 -5.0408672e-24)
(30.063111 0.00021655749 0)
(30.062412 0.00068176949 -1.5305537e-24)
(30.061691 0.0010640778 -1.4672203e-24)
(30.060959 0.0013707736 -1.4027334e-24)
(30.060225 0.001609078 1.3537589e-24)
(30.059497 0.0017865887 1.2847797e-24)
(30.058782 0.0019114964 0)
(30.058086 0.0019921039 0)
(30.057412 0.0020358861 0)
(30.056764 0.0020487978 -1.0286043e-24)
(30.056141 0.002035378 -9.8673928e-28)
(30.055545 0.0019995064 -4.5963167e-25)
(30.054975 0.0019452062 -2.4350009e-27)
(30.054432 0.0018769049 4.0664029e-25)
(30.053917 0.0017989892 -3.8622308e-25)
(30.053429 0.0017151056 -3.2962141e-27)
(30.052967 0.0016276456 8.5207848e-26)
(30.05253 0.0015378192 2.4302214e-25)
(30.052114 0.0014462305 0)
(30.051721 0.0013535583 0)