/*--------------------------------*- C++ -*----------------------------------*\
| =========                 |                                                 |
| \\      /  F ield         | OpenFOAM: The Open Source CFD Toolbox           |
|  \\    /   O peration     | Version:  2406                                  |
|   \\  /    A nd           | Website:  www.openfoam.com                      |
|    \\/     M anipulation  |                                                 |
\*---------------------------------------------------------------------------*/
FoamFile
{
    version     2.0;
    format      ascii;
    arch        "LSB;label=32;scalar=64";
    class       volScalarField;
    location    "800";
    object      k;
}
// * * * * * * * * * * * * * * * * * * * * * * * * * * * * * * * * * * * * * //

dimensions      [0 2 -2 0 0 0 0];

internalField   nonuniform List<scalar> 
16045
(
0.054775659
0.047087648
0.041212734
0.036588001
0.032859039
0.029792656
0.027229256
0.025056278
0.023192151
0.021576231
0.020162888
0.01891657
0.017810032
0.016820935
0.015932262
0.01512908
0.014400472
0.013735854
0.013128178
0.012569488
0.012055337
0.011579369
0.011138993
0.01072881
0.010347627
0.0099905823
0.0096575995
0.0093440638
0.0090508436
0.0087733585
0.0085133175
0.0082660199
0.0080339471
0.0078121676
0.0076038843
0.0074038611
0.0072159768
0.0070346471
0.0068643832
0.0066992276
0.0065442886
0.0063932128
0.0062516906
0.0061129344
0.0059832361
0.0058553048
0.0057360943
0.0056177088
0.0055078575
0.0053979186
0.0052964635
0.0051940262
0.0051001357
0.0050043876
0.004917337
0.0048275765
0.0047467329
0.0046623484
0.0045871589
0.0045076142
0.0044375921
0.0043624192
0.0042971276
0.0042259247
0.0041649625
0.0040973892
0.0040403847
0.00397615
0.0039227669
0.003861606
0.0038115612
0.0037532057
0.0037062875
0.0036504517
0.0036065047
0.0035529188
0.0035117831
0.0034602568
0.0034217118
0.0033721495
0.003335944
0.0032882653
0.0032542151
0.0032082645
0.003176297
0.0031318533
0.0031019501
0.0030587905
0.0030309436
0.0029888673
0.0029630251
0.0029219612
0.002897938
0.0028578559
0.0028355441
0.0027965279
0.0027756726
0.002737808
0.0027162696
0.0026741762
0.054775659
0.047087642
0.04121272
0.03658798
0.032859011
0.029792623
0.027229218
0.025056235
0.023192104
0.021576181
0.020162835
0.018916514
0.017809975
0.016820877
0.015932202
0.01512902
0.014400411
0.013735792
0.013128116
0.012569426
0.012055276
0.011579309
0.011138933
0.010728752
0.010347569
0.0099905263
0.0096575453
0.0093440116
0.0090507936
0.0087733108
0.0085132723
0.0082659773
0.0080339073
0.0078121306
0.0076038502
0.0074038298
0.0072159484
0.0070346216
0.0068643606
0.0066992078
0.0065442714
0.0063931982
0.0062516785
0.0061129246
0.0059832285
0.0058552993
0.0057360906
0.0056177069
0.0055078572
0.0053979197
0.005296466
0.0051940299
0.0051001404
0.0050043933
0.0049173434
0.0048275837
0.0047467407
0.0046623567
0.0045871677
0.0045076234
0.0044376016
0.004362429
0.0042971376
0.004225935
0.0041649729
0.0040973997
0.0040403954
0.0039761607
0.0039227777
0.0038616168
0.0038115721
0.0037532166
0.0037062984
0.0036504625
0.0036065155
0.0035529296
0.0035117938
0.0034602674
0.0034217224
0.00337216
0.0033359545
0.0032882757
0.0032542255
0.0032082748
0.0031763073
0.0031318634
0.0031019602
0.0030588005
0.0030309536
0.0029888772
0.002963035
0.002921971
0.0028979478
0.0028578655
0.0028355537
0.0027965374
0.0027756821
0.0027378174
0.002716279
0.0026741854
0.054775659
0.04708764
0.041212717
0.036587975
0.032859004
0.029792614
0.027229208
0.025056223
0.023192092
0.021576169
0.020162822
0.018916501
0.017809962
0.016820863
0.015932188
0.015129006
0.014400397
0.013735779
0.013128104
0.012569414
0.012055264
0.011579299
0.011138924
0.010728744
0.010347563
0.009990522
0.0096575429
0.0093440111
0.0090507953
0.0087733146
0.0085132785
0.0082659858
0.0080339181
0.0078121438
0.0076038657
0.0074038476
0.0072159685
0.0070346437
0.0068643846
0.0066992336
0.0065442989
0.006393227
0.0062517086
0.0061129557
0.0059832605
0.005855332
0.0057361239
0.0056177405
0.0055078911
0.0053979537
0.0052965
0.0051940637
0.0051001741
0.0050044267
0.0049173765
0.0048276164
0.004746773
0.0046623885
0.0045871991
0.0045076542
0.004437632
0.0043624589
0.004297167
0.0042259638
0.0041650013
0.0040974276
0.0040404229
0.0039761877
0.0039228042
0.0038616429
0.0038115978
0.0037532418
0.0037063233
0.003650487
0.0036065397
0.0035529534
0.0035118173
0.0034602905
0.0034217453
0.0033721825
0.0033359767
0.0032882976
0.0032542471
0.0032082961
0.0031763284
0.0031318842
0.0031019808
0.0030588209
0.0030309737
0.002988897
0.0029630546
0.0029219904
0.002897967
0.0028578844
0.0028355725
0.002796556
0.0027757005
0.0027378356
0.002716297
0.0026742031
0.054775658
0.047087639
0.041212714
0.03658797
0.032858996
0.029792603
0.027229194
0.025056207
0.023192074
0.021576148
0.020162799
0.018916476
0.017809934
0.016820835
0.015932158
0.015128974
0.014400365
0.013735746
0.013128071
0.012569382
0.012055232
0.011579267
0.011138894
0.010728715
0.010347536
0.0099904965
0.0096575197
0.0093439904
0.0090507773
0.0087732996
0.0085132665
0.008265977
0.0080339128
0.0078121418
0.0076038671
0.0074038524
0.0072159765
0.0070346549
0.0068643989
0.0066992507
0.0065443187
0.0063932493
0.0062517332
0.0061129823
0.0059832889
0.0058553619
0.0057361552
0.005617773
0.0055079246
0.005397988
0.0052965349
0.0051940992
0.0051002099
0.0050044628
0.0049174128
0.0048276527
0.0047468094
0.0046624248
0.0045872353
0.0045076902
0.0044376678
0.0043624944
0.0042972023
0.0042259988
0.0041650361
0.004097462
0.004040457
0.0039762214
0.0039228377
0.003861676
0.0038116306
0.0037532742
0.0037063554
0.0036505188
0.0036065712
0.0035529844
0.0035118481
0.003460321
0.0034217755
0.0033722123
0.0033360063
0.0032883268
0.0032542761
0.0032083247
0.0031763568
0.0031319123
0.0031020087
0.0030588484
0.003031001
0.002988924
0.0029630815
0.0029220169
0.0028979933
0.0028579105
0.0028355983
0.0027965815
0.0027757259
0.0027378607
0.0027163219
0.0026742277
0.054775658
0.047087638
0.041212711
0.036587966
0.03285899
0.029792594
0.027229184
0.025056196
0.02319206
0.021576133
0.020162783
0.018916458
0.017809915
0.016820815
0.015932138
0.015128954
0.014400345
0.013735726
0.013128051
0.012569363
0.012055215
0.011579251
0.011138879
0.010728703
0.010347526
0.0099904898
0.009657516
0.0093439902
0.0090507806
0.0087733067
0.0085132776
0.0082659922
0.0080339321
0.0078121652
0.0076038946
0.0074038838
0.0072160118
0.0070346938
0.0068644411
0.0066992961
0.0065443669
0.0063933
0.0062517861
0.0061130371
0.0059833453
0.0058554196
0.0057362138
0.0056178324
0.0055079844
0.005398048
0.005296595
0.0051941591
0.0051002696
0.0050045221
0.0049174716
0.0048277109
0.0047468669
0.0046624816
0.0045872913
0.0045077455
0.0044377222
0.004362548
0.0042972551
0.0042260508
0.0041650872
0.0040975123
0.0040405065
0.0039762701
0.0039228857
0.0038617232
0.0038116771
0.00375332
0.0037064006
0.0036505632
0.003606615
0.0035530276
0.0035118907
0.0034603629
0.0034218169
0.0033722531
0.0033360466
0.0032883666
0.0032543154
0.0032083635
0.0031763951
0.0031319501
0.0031020461
0.0030588853
0.0030310376
0.0029889601
0.0029631172
0.0029220521
0.0028980283
0.0028579449
0.0028356325
0.0027966152
0.0027757594
0.0027378937
0.0027163547
0.00267426
0.054775659
0.047087638
0.041212711
0.036587963
0.032858985
0.029792587
0.027229174
0.025056184
0.023192046
0.021576117
0.020162764
0.018916438
0.017809894
0.016820792
0.015932114
0.015128929
0.014400319
0.013735701
0.013128026
0.012569338
0.012055191
0.011579228
0.011138859
0.010728684
0.01034751
0.0099904767
0.0096575064
0.0093439841
0.0090507788
0.0087733089
0.0085132846
0.0082660036
0.0080339484
0.0078121861
0.0076039205
0.0074039142
0.0072160467
0.0070347329
0.0068644842
0.0066993429
0.006544417
0.0063933531
0.0062518417
0.006113095
0.005983405
0.0058554809
0.0057362764
0.0056178959
0.0055080485
0.0053981125
0.0052966597
0.0051942238
0.0051003341
0.0050045862
0.0049175354
0.0048277741
0.0047469296
0.0046625436
0.0045873527
0.004507806
0.0044377821
0.0043626071
0.0042973135
0.0042261083
0.004165144
0.0040975683
0.0040405618
0.0039763246
0.0039229395
0.0038617762
0.0038117295
0.0037533717
0.0037064516
0.0036506135
0.0036066648
0.0035530767
0.0035119393
0.0034604108
0.0034218643
0.0033722999
0.003336093
0.0032884123
0.0032543608
0.0032084082
0.0031764395
0.0031319939
0.0031020895
0.0030589281
0.0030310801
0.002989002
0.0029631589
0.0029220932
0.0028980691
0.0028579853
0.0028356726
0.0027966548
0.0027757987
0.0027379325
0.0027163933
0.002674298
0.054775658
0.047087638
0.041212709
0.03658796
0.032858979
0.029792581
0.027229165
0.025056174
0.023192032
0.021576102
0.020162745
0.01891642
0.017809872
0.016820771
0.015932089
0.015128906
0.014400294
0.013735677
0.013128001
0.012569316
0.012055168
0.01157921
0.01113884
0.010728671
0.010347498
0.0099904702
0.0096575023
0.0093439862
0.0090507843
0.0087733213
0.008513301
0.008266027
0.0080339764
0.007812221
0.0076039601
0.0074039602
0.0072160974
0.0070347891
0.0068645449
0.0066994079
0.006544486
0.0063934254
0.0062519173
0.0061131727
0.0059834853
0.0058555624
0.0057363596
0.0056179794
0.005508133
0.005398197
0.0052967443
0.005194308
0.0051004179
0.0050046694
0.0049176177
0.0048278557
0.0047470099
0.0046626233
0.0045874309
0.0045078836
0.004437858
0.0043626825
0.004297387
0.0042261814
0.0041652152
0.0040976391
0.0040406309
0.0039763931
0.0039230066
0.0038618426
0.0038117947
0.003753436
0.003706515
0.003650676
0.0036067263
0.0035531374
0.003511999
0.00346047
0.0034219225
0.0033723574
0.0033361498
0.0032884682
0.0032544163
0.0032084626
0.0031764936
0.003132047
0.0031021424
0.0030589801
0.0030311317
0.0029890529
0.0029632092
0.0029221429
0.0028981184
0.0028580339
0.0028357209
0.0027967023
0.0027758461
0.0027379792
0.0027164395
0.0026743434
0.054775647
0.047087652
0.041212689
0.036587978
0.03285895
0.029792603
0.027229123
0.025056199
0.023191976
0.021576132
0.020162677
0.018916453
0.017809792
0.016820807
0.015932001
0.015128944
0.0144002
0.013735717
0.013127906
0.012569358
0.012055075
0.011579255
0.011138751
0.010728721
0.010347415
0.0099905291
0.0096574271
0.0093440569
0.0090507174
0.0087734059
0.0085132442
0.0082661251
0.0080339338
0.0078123282
0.0076039386
0.0074040676
0.0072161063
0.0070348851
0.0068645933
0.0066994815
0.0065445794
0.0063934704
0.0062520534
0.0061131919
0.005983652
0.0058555683
0.0057365364
0.0056179917
0.0055082959
0.0053982355
0.0052968726
0.0051943876
0.0051004985
0.0050047975
0.0049176447
0.004828035
0.0047469805
0.0046628556
0.0045873432
0.0045081685
0.0044377152
0.0043630121
0.0042972031
0.0042265348
0.0041650187
0.0040979814
0.0040404609
0.0039766848
0.0039228985
0.0038620592
0.0038117555
0.0037535936
0.0037065058
0.0036508308
0.0036066869
0.0035533362
0.0035119147
0.0034606842
0.0034218642
0.00337249
0.0033362146
0.0032884515
0.0032546222
0.0032083326
0.0031767642
0.0031318983
0.0031023831
0.0030589031
0.003031256
0.0029891139
0.0029632146
0.0029222523
0.0028981257
0.0028581727
0.0028357572
0.0027965707
0.0027760198
0.0027375218
0.0027209339
0.0026684536
0.054775647
0.047087652
0.041212688
0.036587973
0.032858946
0.029792595
0.027229114
0.025056185
0.023191962
0.021576113
0.020162657
0.018916429
0.017809768
0.016820778
0.015931974
0.015128913
0.014400172
0.013735686
0.013127877
0.012569327
0.012055049
0.011579228
0.01113873
0.010728701
0.010347401
0.0099905176
0.0096574227
0.0093440568
0.0090507253
0.0087734192
0.0085132661
0.0082661534
0.0080339708
0.007812372
0.0076039907
0.0074041266
0.0072161728
0.0070349582
0.0068646727
0.0066995665
0.0065446695
0.006393565
0.0062521518
0.0061132935
0.0059837563
0.0058556744
0.0057366441
0.0056181001
0.005508405
0.0053983445
0.0052969814
0.0051944959
0.005100606
0.0050049041
0.00491775
0.0048281393
0.004747083
0.0046629571
0.0045874429
0.004508267
0.0044378118
0.0043631076
0.0042972967
0.0042266273
0.0041651094
0.004098071
0.0040405488
0.0039767715
0.0039229838
0.0038621433
0.0038118382
0.0037536751
0.0037065861
0.00365091
0.0036067649
0.0035534132
0.0035119906
0.0034607591
0.0034219381
0.003372563
0.0033362866
0.0032885226
0.0032546924
0.003208402
0.0031768328
0.003131966
0.00310245
0.0030589692
0.0030313214
0.0029891785
0.0029632786
0.0029223155
0.0028981883
0.0028582345
0.0028358185
0.0027966312
0.0027760798
0.002737581
0.002720993
0.0026685115
0.054775659
0.047087634
0.041212703
0.036587949
0.032858964
0.029792557
0.027229135
0.025056134
0.023191986
0.021576046
0.020162684
0.018916349
0.017809797
0.016820688
0.015932004
0.015128815
0.014400203
0.013735583
0.01312791
0.012569225
0.012055084
0.011579129
0.01113877
0.010728608
0.01034745
0.0099904339
0.0096574838
0.0093439836
0.0090508025
0.0087733585
0.0085133613
0.0082661085
0.0080340821
0.0078123487
0.0076041115
0.0074041333
0.0072162924
0.007035004
0.0068647787
0.0066996586
0.006544752
0.0063937046
0.006252208
0.0061134728
0.0059837932
0.0058558758
0.0057366774
0.0056182997
0.0055084549
0.0053985187
0.0052970655
0.0051946273
0.005100735
0.0050049834
0.0049179282
0.0048281625
0.0047473124
0.0046629217
0.0045877246
0.0045081731
0.0044381427
0.0043629629
0.0042976627
0.004226453
0.0041654824
0.0040979021
0.0040408897
0.0039766479
0.0039232576
0.0038620895
0.0038120383
0.0037536756
0.0037067515
0.0036509088
0.0036069563
0.0035533638
0.0035122228
0.0034606903
0.0034221405
0.0033725721
0.0033363623
0.0032886776
0.0032546236
0.0032086669
0.0031766961
0.0031322465
0.0031023402
0.0030591751
0.0030313251
0.0029892436
0.0029633985
0.0029223296
0.0028983037
0.0028582166
0.0028359024
0.0027968814
0.0027760239
0.0027381546
0.0027166139
0.0026745151
0.054775658
0.047087635
0.0412127
0.036587946
0.032858957
0.029792549
0.027229122
0.02505612
0.023191966
0.021576026
0.020162657
0.018916322
0.017809764
0.016820655
0.015931967
0.015128778
0.014400162
0.013735545
0.013127869
0.012569187
0.012055044
0.011579095
0.011138736
0.01072858
0.010347425
0.0099904163
0.0096574708
0.0093439797
0.0090508051
0.0087733713
0.0085133821
0.0082661401
0.0080341227
0.0078124001
0.0076041724
0.0074042042
0.0072163725
0.0070350929
0.0068648758
0.0066997632
0.0065448631
0.0063938216
0.0062523295
0.0061135986
0.0059839216
0.0058560072
0.0057368098
0.0056184336
0.0055085886
0.0053986529
0.0052971988
0.0051947598
0.0051008662
0.0050051131
0.0049180566
0.0048282887
0.0047474373
0.004663044
0.0045878457
0.0045082915
0.0044382599
0.0043630774
0.0042977761
0.0042265637
0.004165592
0.0040980092
0.0040409957
0.0039767517
0.0039233602
0.0038621902
0.0038121377
0.0037537733
0.0037068479
0.0036510037
0.00360705
0.0035534561
0.0035123139
0.0034607801
0.0034222292
0.0033726596
0.0033364487
0.0032887628
0.0032547078
0.0032087502
0.0031767783
0.0031323278
0.0031024205
0.0030592545
0.0030314036
0.0029893212
0.0029634753
0.0029224054
0.0028983789
0.0028582908
0.0028359759
0.0027969541
0.002776096
0.0027382259
0.0027166844
0.0026745847
0.054775647
0.047087649
0.041212681
0.036587963
0.032858926
0.029792569
0.027229076
0.02505614
0.023191904
0.021576047
0.020162579
0.018916344
0.017809671
0.016820677
0.015931863
0.015128799
0.014400051
0.013735565
0.013127754
0.012569208
0.012054931
0.011579119
0.011138627
0.010728612
0.010347325
0.0099904597
0.0096573827
0.0093440401
0.0090507315
0.0087734528
0.0085133267
0.008266244
0.0080340906
0.0078125227
0.0076041712
0.0074043368
0.0072164111
0.0070352231
0.0068649623
0.0066998784
0.0065450011
0.0063939139
0.006252515
0.0061136688
0.0059841405
0.005856066
0.0057370398
0.0056184992
0.0055088046
0.005398744
0.005297379
0.0051948907
0.0051009973
0.0050052906
0.0049181321
0.0048285155
0.0047474545
0.0046633217
0.0045878028
0.0045086198
0.00443816
0.0043634486
0.0042976333
0.0042269569
0.0041654348
0.0040983898
0.0040408636
0.0039770802
0.0039232885
0.0038624424
0.0038121335
0.0037539653
0.0037068726
0.0036511917
0.0036070433
0.003553687
0.0035122614
0.0034610255
0.0034222017
0.0033728224
0.0033365434
0.0032887756
0.0032549429
0.0032086488
0.0031770773
0.003132207
0.0031026889
0.0030592046
0.0030315549
0.0029894087
0.002963507
0.0029225407
0.0028984119
0.002858455
0.0028360375
0.0027968471
0.0027762944
0.0027377927
0.0027212032
0.0026687181
0.054775645
0.047087646
0.041212679
0.036587957
0.032858919
0.029792555
0.027229062
0.025056119
0.023191882
0.021576017
0.020162549
0.018916305
0.017809633
0.01682063
0.015931817
0.015128747
0.0144
0.013735508
0.013127701
0.012569151
0.012054878
0.011579065
0.011138579
0.010728565
0.010347285
0.0099904242
0.0096573574
0.0093440213
0.0090507246
0.0087734549
0.0085133421
0.0082662703
0.008034131
0.0078125752
0.0076042373
0.0074044154
0.007216502
0.0070353257
0.0068650754
0.0067000013
0.0065451325
0.0063940524
0.0062526599
0.0061138182
0.0059842943
0.0058562218
0.0057371982
0.0056186576
0.0055089641
0.0053989024
0.0052975369
0.005195047
0.0051011519
0.0050054435
0.0049182824
0.0048286641
0.0047475999
0.0046634657
0.0045879432
0.0045087589
0.0044382955
0.0043635829
0.0042977641
0.0042270865
0.0041655612
0.0040985149
0.0040409858
0.0039772011
0.0039234069
0.0038625594
0.0038122483
0.0037540785
0.0037069841
0.0036513016
0.0036071515
0.0035537938
0.0035123665
0.0034611294
0.0034223041
0.0033729235
0.0033366432
0.003288874
0.0032550403
0.0032087448
0.0031771723
0.0031323008
0.0031027817
0.0030592963
0.0030316456
0.0029894983
0.0029635957
0.0029226284
0.0028984987
0.0028585408
0.0028361225
0.0027969311
0.0027763776
0.0027378749
0.0027212852
0.0026687984
0.054775656
0.04708763
0.041212692
0.036587931
0.032858933
0.029792515
0.027229075
0.025056061
0.023191894
0.021575941
0.020162558
0.018916212
0.01780964
0.016820522
0.015931821
0.015128626
0.014400001
0.013735381
0.0131277
0.012569019
0.012054878
0.011578935
0.011138583
0.010728442
0.0103473
0.0099903123
0.0096573883
0.0093439248
0.0090507785
0.0087733786
0.0085134233
0.0082662197
0.0080342397
0.0078125575
0.0076043681
0.0074044392
0.0072166439
0.0070353997
0.0068652145
0.006700131
0.0065452566
0.0063942367
0.0062527636
0.0061140466
0.0059843819
0.0058564744
0.0057372836
0.0056189089
0.0055090656
0.0053991275
0.0052976712
0.0051952276
0.0051013291
0.00500557
0.0049185067
0.0048287323
0.0047478731
0.0046634734
0.0045882665
0.0045087062
0.0044386659
0.0043634777
0.0042981679
0.0042269501
0.0041659703
0.0040983823
0.0040413615
0.0039771122
0.0039237144
0.003862539
0.003812481
0.0037541112
0.0037071811
0.0036513315
0.0036073734
0.0035537747
0.0035126284
0.00346109
0.0034225353
0.0033729612
0.0033367471
0.0032890566
0.003254999
0.0032090366
0.0031770625
0.0031326074
0.0031026981
0.0030595277
0.0030316748
0.0029895883
0.0029637404
0.0029226668
0.0028986384
0.0028585466
0.00283623
0.0027972045
0.0027763449
0.0027384712
0.0027169284
0.0026748245
0.054775644
0.047087643
0.041212673
0.036587946
0.032858901
0.029792529
0.027229025
0.025056072
0.023191825
0.021575949
0.02016247
0.018916216
0.017809534
0.016820521
0.015931699
0.01512862
0.014399867
0.01373537
0.013127559
0.012569007
0.012054735
0.011578924
0.011138444
0.010728437
0.010347169
0.0099903208
0.0096572718
0.0093439543
0.0090506815
0.0087734357
0.0085133518
0.0082663081
0.0080342008
0.0078126753
0.0076043703
0.0074045784
0.007216696
0.0070355473
0.0068653236
0.0067002726
0.0065454244
0.0063943622
0.0062529835
0.0061141543
0.0059846377
0.0058565728
0.0057375514
0.005619014
0.0055093191
0.005399257
0.0052978882
0.0051953949
0.0051014956
0.0050057817
0.0049186164
0.0048289911
0.004747923
0.0046637809
0.0045882551
0.0045090624
0.0044385962
0.0043638752
0.004298054
0.0042273683
0.0041658407
0.004098787
0.0040412556
0.0039774642
0.0039236675
0.0038628142
0.0038125005
0.0037543257
0.0037072285
0.0036515414
0.0036073888
0.0035540267
0.0035125973
0.0034613558
0.0034225287
0.0033731441
0.0033368617
0.0032890892
0.0032552531
0.0032089548
0.00317738
0.0031325057
0.0031029846
0.0030594963
0.003031844
0.0029896937
0.0029637898
0.0029228195
0.0028986886
0.0028587279
0.0028363084
0.0027971144
0.0027765598
0.0027380544
0.0027214637
0.0026689742
0.054775655
0.047087627
0.041212685
0.036587918
0.032858914
0.029792484
0.027229036
0.025056008
0.023191832
0.021575863
0.020162472
0.018916109
0.01780953
0.016820395
0.015931689
0.015128479
0.01439985
0.013735217
0.013127536
0.012568847
0.012054709
0.011578764
0.011138421
0.010728282
0.010347155
0.0099901773
0.0096572743
0.0093438288
0.0090507098
0.008773335
0.0085134125
0.0082662399
0.0080342963
0.0078126486
0.0076044964
0.0074046027
0.0072168421
0.0070356304
0.006865475
0.0067004185
0.0065455674
0.0063945674
0.0062531106
0.0061144062
0.0059847512
0.00585685
0.0057376633
0.00561929
0.0055094466
0.0053995063
0.0052980469
0.0051955989
0.0051016954
0.0050059307
0.0049188614
0.0048290808
0.0047482152
0.0046638091
0.0045885959
0.0045090292
0.0044389829
0.0043637885
0.0042984732
0.0042272493
0.0041662646
0.0040986708
0.0040416455
0.0039773909
0.0039239888
0.0038628085
0.0038127467
0.0037543723
0.0037074386
0.0036515847
0.0036076233
0.0035540205
0.0035128712
0.003461329
0.0034227716
0.0033731938
0.0033369772
0.0032892833
0.0032552232
0.0032092577
0.0031772812
0.0031328232
0.0031029117
0.0030597384
0.0030318836
0.0029897943
0.0029639446
0.0029228682
0.0028988381
0.0028587437
0.0028364256
0.0027973975
0.0027765364
0.0027386603
0.002717116
0.0026750094
0.054775655
0.047087626
0.04121268
0.03658791
0.032858899
0.029792468
0.027229011
0.025055979
0.023191792
0.02157582
0.020162418
0.01891605
0.01780946
0.016820322
0.015931604
0.015128392
0.014399753
0.013735119
0.01312743
0.012568742
0.012054598
0.011578655
0.01113831
0.010728177
0.010347052
0.0099900842
0.0096571881
0.0093437561
0.0090506491
0.0087732916
0.0085133858
0.0082662334
0.0080343102
0.0078126844
0.0076045543
0.007404682
0.0072169433
0.0070357508
0.0068656142
0.0067005739
0.0065457367
0.0063947493
0.006253301
0.0061146055
0.0059849541
0.0058570585
0.0057378716
0.0056195009
0.0055096551
0.0053997149
0.0052982522
0.0051958021
0.0051018953
0.0050061269
0.0049190548
0.0048292694
0.0047484016
0.0046639899
0.0045887753
0.0045092027
0.0044391554
0.0043639552
0.004298639
0.0042274097
0.0041664241
0.0040988256
0.0040417992
0.0039775404
0.0039241371
0.0038629533
0.0038128899
0.0037545127
0.0037075772
0.0036517209
0.003607758
0.0035541527
0.0035130021
0.0034614575
0.0034228989
0.0033733191
0.003337101
0.0032894056
0.0032553438
0.003209377
0.0031773989
0.0031329397
0.0031030266
0.0030598522
0.003031996
0.0029899054
0.0029640547
0.0029229769
0.0028989458
0.0028588501
0.002836531
0.0027975018
0.0027766398
0.0027387625
0.0027172171
0.0026751094
0.054775643
0.047087638
0.041212659
0.036587921
0.032858863
0.029792475
0.027228953
0.02505598
0.023191712
0.021575813
0.020162312
0.018916034
0.01780933
0.016820294
0.015931453
0.015128353
0.014399583
0.013735069
0.013127246
0.012568682
0.012054405
0.011578591
0.011138115
0.010728115
0.010346863
0.0099900342
0.0096570134
0.0093437293
0.0090504984
0.0087732992
0.0085132697
0.0082662838
0.0080342399
0.0078127793
0.0076045411
0.0074048152
0.0072169966
0.0070359084
0.0068657398
0.0067007386
0.0065459328
0.0063949068
0.0062535569
0.00611475
0.0059852496
0.0058571952
0.0057381798
0.0056196438
0.0055099475
0.0053998806
0.0052985055
0.0051960036
0.0051020952
0.0050063708
0.0049191948
0.0048295584
0.0047484793
0.0046643259
0.0045887894
0.0045095858
0.0044391096
0.0043643781
0.0042985476
0.004227852
0.0041663161
0.0040992531
0.004041714
0.003977914
0.0039241103
0.0038632491
0.0038129289
0.0037547467
0.0037076436
0.0036519497
0.0036077917
0.003554423
0.0035129888
0.0034617412
0.0034229095
0.0033735192
0.0033372327
0.0032894546
0.0032556147
0.0032093111
0.0031777327
0.0031328534
0.003103329
0.0030598359
0.0030321805
0.0029900255
0.0029641188
0.0029231439
0.0028990105
0.0028590452
0.0028366235
0.0027974251
0.0027768683
0.0027383587
0.0027217662
0.0026692712
0.054775653
0.047087621
0.041212671
0.036587891
0.03285887
0.029792425
0.027228955
0.025055907
0.023191703
0.021575714
0.020162292
0.018915908
0.017809297
0.016820142
0.015931406
0.015128178
0.014399521
0.013734874
0.013127171
0.012568473
0.01205432
0.011578373
0.011138026
0.010727897
0.010346778
0.0099898246
0.0096569454
0.0093435388
0.0090504603
0.0087731403
0.0085132739
0.0082661697
0.0080342942
0.0078127231
0.0076046453
0.0074048286
0.0072171409
0.007035999
0.006865907
0.0067009073
0.0065461048
0.0063951454
0.0062537209
0.0061150411
0.0059854036
0.0058575132
0.0057383323
0.0056199595
0.0055101136
0.0054001673
0.0052987001
0.0051962422
0.005102328
0.0050065514
0.0049194702
0.0048296772
0.0047487994
0.0046643811
0.0045891559
0.0045095779
0.00443952
0.0043643152
0.004298989
0.0042277556
0.0041667609
0.0040991584
0.004042124
0.0039778611
0.003924451
0.0038632627
0.0038131939
0.0037548119
0.0037078719
0.003652011
0.0036080439
0.0035544344
0.0035132798
0.0034617314
0.0034231691
0.0033735854
0.0033373644
0.0032896647
0.0032556009
0.0032096296
0.0031776498
0.0031331862
0.0031032716
0.003060093
0.0030322352
0.0029901409
0.0029642884
0.0029232073
0.0028991746
0.0028590755
0.002836755
0.0027977224
0.0027768593
0.0027389787
0.0027174322
0.0026753206
0.054775641
0.047087632
0.041212648
0.036587901
0.032858831
0.02979243
0.027228892
0.025055901
0.023191613
0.021575695
0.020162173
0.018915875
0.017809149
0.016820093
0.01593123
0.015128111
0.01439932
0.013734789
0.013126949
0.012568372
0.012054083
0.011578261
0.01113778
0.010727781
0.010346534
0.0099897164
0.009656713
0.0093434534
0.0090502539
0.0087730932
0.008513109
0.0082661743
0.0080341872
0.0078127864
0.0076046108
0.007404947
0.0072171893
0.0070361583
0.0068660421
0.0067010873
0.0065463208
0.0063953276
0.0062540025
0.006115215
0.0059857268
0.0058576805
0.0057386676
0.0056201317
0.0055104316
0.0054003595
0.0052989771
0.005196467
0.0051025497
0.0050068157
0.0049196305
0.0048299839
0.004748896
0.0046647325
0.004589188
0.0045099746
0.0044394911
0.0043647505
0.0042989135
0.0042282095
0.0041666676
0.004099597
0.0040420524
0.0039782456
0.0039244368
0.0038635693
0.0038132444
0.0037550566
0.0037079491
0.0036522499
0.003608088
0.0035547144
0.0035132766
0.0034620242
0.0034231893
0.0033737945
0.003337505
0.0032897228
0.00325588
0.0032095725
0.0031779915
0.0031331084
0.0031035815
0.0030600848
0.0030324272
0.0029902687
0.00296436
0.0029233817
0.0028992463
0.0028592778
0.0028368542
0.0027976527
0.0027770943
0.0027385816
0.0027219877
0.0026694888
0.054775652
0.047087614
0.041212659
0.036587868
0.032858837
0.029792374
0.027228889
0.025055819
0.023191597
0.021575582
0.020162143
0.018915729
0.0178091
0.016819915
0.015931161
0.015127903
0.014399229
0.013734554
0.013126836
0.012568115
0.012053951
0.011577987
0.011137636
0.0107275
0.010346388
0.0099894386
0.0096565797
0.0093431934
0.0090501509
0.0087728687
0.0085130547
0.008266005
0.0080341954
0.0078126914
0.0076046861
0.0074049413
0.0072173242
0.0070362492
0.0068662176
0.0067012717
0.0065465142
0.0063955916
0.0062541953
0.0061155358
0.0059859119
0.0058580287
0.0057388504
0.005620476
0.0055106256
0.0054006721
0.0052991965
0.0051967288
0.0051028044
0.005007017
0.0049199252
0.0048301213
0.0047492332
0.0046648047
0.0045895699
0.0045099822
0.0044399157
0.0043647019
0.0042993682
0.0042281264
0.004167125
0.0040995147
0.0040424744
0.0039782044
0.003924789
0.0038635943
0.0038135205
0.0037551327
0.0037081882
0.0036523218
0.0036083506
0.0035547361
0.0035135778
0.0034620246
0.0034234589
0.0033738707
0.0033376466
0.0032899427
0.0032558758
0.0032099007
0.003177918
0.0031334507
0.0031035334
0.0030603513
0.003032491
0.0029903933
0.0029645386
0.002923454
0.0028994193
0.002859317
0.0028369946
0.0027979589
0.0027770939
0.0027392103
0.0027176621
0.0026755472
0.05477565
0.047087612
0.041212651
0.036587856
0.032858817
0.029792346
0.02722885
0.025055769
0.023191537
0.021575508
0.020162056
0.018915629
0.017808986
0.016819786
0.015931017
0.015127744
0.014399056
0.013734366
0.013126635
0.0125679
0.012053726
0.011577751
0.011137393
0.01072725
0.010346137
0.0099891889
0.009656337
0.0093429608
0.0090499361
0.0087726747
0.0085128902
0.0082658722
0.0080341026
0.0078126389
0.0076046799
0.0074049789
0.0072174076
0.0070363737
0.0068663807
0.006701468
0.0065467377
0.0063958381
0.0062544568
0.0061158106
0.0059861913
0.005858314
0.0057391334
0.0056207595
0.0055109032
0.0054009467
0.0052994641
0.005196991
0.00510306
0.0050072659
0.0049201684
0.0048303571
0.0047494647
0.0046650281
0.0045897906
0.0045101944
0.0044401266
0.0043649043
0.0042995697
0.0042283201
0.0041673181
0.0040997008
0.0040426597
0.0039783838
0.0039249669
0.0038637676
0.0038136918
0.0037553004
0.0037083536
0.0036524841
0.0036085109
0.0035548932
0.0035137333
0.0034621769
0.0034236098
0.0033740189
0.0033377928
0.0032900871
0.0032560178
0.0032100414
0.0031780561
0.0031335877
0.003103668
0.0030604847
0.0030326224
0.0029905231
0.0029646669
0.0029235806
0.0028995445
0.0028594406
0.0028371168
0.0027980797
0.0027772132
0.0027393284
0.0027177785
0.0026756626
0.054775648
0.047087607
0.041212643
0.036587842
0.032858795
0.029792316
0.027228809
0.025055717
0.023191471
0.021575429
0.020161962
0.01891552
0.017808861
0.016819645
0.015930859
0.015127569
0.014398864
0.013734158
0.01312641
0.012567659
0.01205347
0.011577482
0.011137113
0.010726962
0.010345844
0.0099888946
0.0096560468
0.0093426803
0.0090496718
0.0087724334
0.008512679
0.0082656981
0.0080339718
0.0078125565
0.0076046492
0.0074050016
0.0072174825
0.0070364985
0.00686655
0.0067016762
0.0065469775
0.006396103
0.0062547396
0.0061161056
0.0059864932
0.0058586185
0.0057394373
0.0056210601
0.0055111991
0.0054012363
0.005299747
0.0051972665
0.0051033283
0.0050075267
0.0049204222
0.0048306039
0.004749705
0.0046652621
0.0045900188
0.0045104171
0.0044403439
0.0043651169
0.0042997776
0.0042285237
0.0041675175
0.0040998964
0.0040428517
0.0039785723
0.0039251522
0.0038639497
0.0038138711
0.0037554767
0.0037085275
0.0036526552
0.0036086797
0.0035550595
0.0035138976
0.0034623389
0.0034237698
0.0033741768
0.003337949
0.0032902411
0.0032561703
0.0032101918
0.0031782051
0.0031337347
0.0031038138
0.0030606285
0.0030327651
0.002990664
0.0029648067
0.0029237187
0.0028996815
0.0028595759
0.0028372512
0.0027982124
0.0027773451
0.0027394587
0.0027179079
0.0026757903
0.054775648
0.047087604
0.041212634
0.036587829
0.032858772