/*--------------------------------*- C++ -*----------------------------------*\
| =========                 |                                                 |
| \\      /  F ield         | OpenFOAM: The Open Source CFD Toolbox           |
|  \\    /   O peration     | Version:  2406                                  |
|   \\  /    A nd           | Website:  www.openfoam.com                      |
|    \\/     M anipulation  |                                                 |
\*---------------------------------------------------------------------------*/
FoamFile
{
    version     2.0;
    format      ascii;
    arch        "LSB;label=32;scalar=64";
    class       volScalarField;
    location    "800";
    object      nut;
}
// * * * * * * * * * * * * * * * * * * * * * * * * * * * * * * * * * * * * * //

dimensions      [0 2 -1 0 0 0 0];

internalField   nonuniform List<scalar> 
16045
(
0.0001488914
0.0001471283
0.00014558639
0.00014422039
0.00014299474
0.00014188644
0.00014087384
0.00013994498
0.00013908475
0.00013828746
0.00013754117
0.00013684424
0.00013618612
0.00013556812
0.0001349801
0.00013442574
0.0001338947
0.00013339271
0.0001329088
0.00013245064
0.00013200633
0.00013158539
0.00013117476
0.0001307858
0.00013040416
0.00013004296
0.00012968653
0.00012934962
0.00012901531
0.00012869984
0.00012838509
0.00012808865
0.00012779129
0.00012751192
0.00012723005
0.00012696614
0.00012669807
0.00012644831
0.0001261925
0.00012595581
0.00012571093
0.00012548636
0.00012525131
0.00012503789
0.00012481188
0.00012460856
0.00012439111
0.00012419673
0.00012398764
0.00012380101
0.00012360019
0.00012342022
0.00012322756
0.00012305334
0.00012286865
0.00012269947
0.00012252253
0.00012235774
0.00012218835
0.00012202737
0.00012186532
0.00012170773
0.0001215526
0.00012139838
0.00012124936
0.00012109895
0.00012095479
0.00012080905
0.00012066837
0.00012052799
0.00012039003
0.00012025471
0.00012012004
0.0001199881
0.00011985844
0.00011972782
0.00011960417
0.00011947473
0.00011935541
0.00011922976
0.00011911128
0.00011899218
0.00011887277
0.00011875992
0.00011864135
0.0001185315
0.00011841728
0.00011830649
0.0001182004
0.00011808497
0.00011798893
0.0001178698
0.00011778007
0.00011765955
0.00011757508
0.00011746021
0.00011737341
0.00011727144
0.00011709275
0.00011711512
0.0001488914
0.0001471283
0.00014558639
0.00014422038
0.00014299473
0.00014188643
0.00014087382
0.00013994496
0.00013908473
0.00013828744
0.00013754114
0.00013684421
0.00013618609
0.00013556808
0.00013498007
0.0001344257
0.00013389466
0.00013339266
0.00013290875
0.0001324506
0.00013200628
0.00013158534
0.00013117471
0.00013078575
0.00013040411
0.00013004291
0.00012968648
0.00012934958
0.00012901527
0.00012869979
0.00012838505
0.00012808861
0.00012779126
0.00012751189
0.00012723002
0.00012696611
0.00012669804
0.00012644829
0.00012619248
0.0001259558
0.00012571093
0.00012548636
0.00012525131
0.00012503789
0.00012481188
0.00012460856
0.00012439112
0.00012419674
0.00012398765
0.00012380103
0.00012360021
0.00012342024
0.00012322758
0.00012305337
0.00012286868
0.00012269951
0.00012252257
0.00012235778
0.00012218839
0.00012202741
0.00012186536
0.00012170778
0.00012155265
0.00012139842
0.0001212494
0.000121099
0.00012095484
0.00012080909
0.00012066842
0.00012052804
0.00012039008
0.00012025476
0.00012012009
0.00011998815
0.0001198585
0.00011972787
0.00011960422
0.00011947479
0.00011935546
0.00011922981
0.00011911134
0.00011899224
0.00011887283
0.00011875998
0.0001186414
0.00011853155
0.00011841733
0.00011830655
0.00011820046
0.00011808503
0.00011798899
0.00011786985
0.00011778012
0.0001176596
0.00011757514
0.00011746027
0.00011737347
0.0001172715
0.00011709281
0.00011711517
0.0001488914
0.0001471283
0.00014558639
0.00014422038
0.00014299473
0.00014188642
0.00014087382
0.00013994496
0.00013908472
0.00013828743
0.00013754114
0.0001368442
0.00013618608
0.00013556807
0.00013498006
0.00013442569
0.00013389465
0.00013339265
0.00013290874
0.00013245058
0.00013200627
0.00013158533
0.00013117469
0.00013078574
0.0001304041
0.0001300429
0.00012968647
0.00012934957
0.00012901526
0.00012869979
0.00012838505
0.00012808862
0.00012779126
0.0001275119
0.00012723003
0.00012696613
0.00012669806
0.00012644831
0.00012619251
0.00012595583
0.00012571096
0.00012548639
0.00012525135
0.00012503793
0.00012481193
0.00012460861
0.00012439117
0.00012419679
0.00012398771
0.00012380108
0.00012360026
0.00012342029
0.00012322764
0.00012305343
0.00012286874
0.00012269956
0.00012252262
0.00012235784
0.00012218845
0.00012202747
0.00012186541
0.00012170783
0.00012155271
0.00012139848
0.00012124946
0.00012109905
0.0001209549
0.00012080915
0.00012066848
0.00012052809
0.00012039013
0.00012025482
0.00012012015
0.0001199882
0.00011985855
0.00011972792
0.00011960427
0.00011947484
0.00011935552
0.00011922986
0.00011911139
0.00011899229
0.00011887288
0.00011876003
0.00011864145
0.0001185316
0.00011841739
0.0001183066
0.00011820051
0.00011808508
0.00011798904
0.0001178699
0.00011778017
0.00011765965
0.00011757519
0.00011746032
0.00011737352
0.00011727155
0.00011709286
0.00011711523
0.0001488914
0.0001471283
0.00014558639
0.00014422038
0.00014299473
0.00014188642
0.00014087381
0.00013994495
0.00013908471
0.00013828742
0.00013754112
0.00013684419
0.00013618606
0.00013556805
0.00013498004
0.00013442567
0.00013389462
0.00013339263
0.00013290872
0.00013245056
0.00013200624
0.0001315853
0.00013117467
0.00013078571
0.00013040407
0.00013004288
0.00012968645
0.00012934955
0.00012901525
0.00012869978
0.00012838504
0.00012808861
0.00012779126
0.00012751191
0.00012723005
0.00012696615
0.00012669808
0.00012644834
0.00012619254
0.00012595587
0.000125711
0.00012548644
0.0001252514
0.00012503799
0.00012481199
0.00012460868
0.00012439124
0.00012419687
0.00012398778
0.00012380116
0.00012360035
0.00012342038
0.00012322773
0.00012305352
0.00012286883
0.00012269966
0.00012252272
0.00012235793
0.00012218854
0.00012202756
0.00012186551
0.00012170793
0.0001215528
0.00012139858
0.00012124956
0.00012109916
0.000120955
0.00012080925
0.00012066858
0.0001205282
0.00012039024
0.00012025492
0.00012012025
0.00011998831
0.00011985865
0.00011972803
0.00011960438
0.00011947494
0.00011935562
0.00011922997
0.00011911149
0.00011899239
0.00011887298
0.00011876013
0.00011864156
0.00011853171
0.00011841749
0.0001183067
0.00011820061
0.00011808518
0.00011798914
0.00011787001
0.00011778028
0.00011765976
0.00011757529
0.00011746043
0.00011737362
0.00011727165
0.00011709296
0.00011711533
0.0001488914
0.0001471283
0.00014558639
0.00014422038
0.00014299473
0.00014188642
0.00014087381
0.00013994494
0.0001390847
0.00013828741
0.00013754112
0.00013684418
0.00013618605
0.00013556804
0.00013498002
0.00013442565
0.00013389461
0.00013339261
0.0001329087
0.00013245054
0.00013200622
0.00013158528
0.00013117465
0.0001307857
0.00013040406
0.00013004287
0.00012968645
0.00012934955
0.00012901525
0.00012869979
0.00012838505
0.00012808863
0.00012779129
0.00012751193
0.00012723008
0.00012696619
0.00012669813
0.00012644839
0.0001261926
0.00012595594
0.00012571108
0.00012548652
0.00012525149
0.00012503808
0.00012481208
0.00012460877
0.00012439134
0.00012419697
0.00012398789
0.00012380127
0.00012360046
0.00012342049
0.00012322784
0.00012305363
0.00012286895
0.00012269977
0.00012252283
0.00012235805
0.00012218866
0.00012202768
0.00012186563
0.00012170805
0.00012155293
0.0001213987
0.00012124968
0.00012109927
0.00012095512
0.00012080937
0.0001206687
0.00012052831
0.00012039035
0.00012025504
0.00012012037
0.00011998842
0.00011985877
0.00011972814
0.00011960449
0.00011947506
0.00011935573
0.00011923008
0.00011911161
0.00011899251
0.0001188731
0.00011876025
0.00011864167
0.00011853182
0.0001184176
0.00011830682
0.00011820073
0.0001180853
0.00011798926
0.00011787012
0.00011778039
0.00011765987
0.0001175754
0.00011746054
0.00011737374
0.00011727177
0.00011709308
0.00011711545
0.0001488914
0.0001471283
0.00014558639
0.00014422038
0.00014299472
0.00014188641
0.00014087381
0.00013994494
0.0001390847
0.00013828741
0.00013754111
0.00013684416
0.00013618604
0.00013556802
0.00013498001
0.00013442564
0.00013389459
0.00013339259
0.00013290868
0.00013245052
0.0001320062
0.00013158526
0.00013117464
0.00013078568
0.00013040405
0.00013004286
0.00012968644
0.00012934955
0.00012901525
0.00012869979
0.00012838507
0.00012808865
0.00012779131
0.00012751197
0.00012723013
0.00012696624
0.00012669819
0.00012644846
0.00012619268
0.00012595602
0.00012571116
0.00012548662
0.00012525159
0.00012503819
0.0001248122
0.00012460889
0.00012439146
0.0001241971
0.00012398802
0.0001238014
0.0001236006
0.00012342063
0.00012322798
0.00012305378
0.00012286909
0.00012269992
0.00012252298
0.0001223582
0.00012218881
0.00012202783
0.00012186578
0.0001217082
0.00012155307
0.00012139885
0.00012124983
0.00012109942
0.00012095527
0.00012080952
0.00012066885
0.00012052847
0.00012039051
0.00012025519
0.00012012052
0.00011998857
0.00011985892
0.0001197283
0.00011960464
0.00011947521
0.00011935589
0.00011923023
0.00011911176
0.00011899266
0.00011887325
0.0001187604
0.00011864182
0.00011853197
0.00011841775
0.00011830697
0.00011820088
0.00011808545
0.00011798941
0.00011787027
0.00011778054
0.00011766002
0.00011757556
0.00011746069
0.00011737389
0.00011727192
0.00011709323
0.0001171156
0.0001488914
0.0001471283
0.00014558638
0.00014422038
0.00014299472
0.00014188641
0.0001408738
0.00013994494
0.00013908469
0.00013828741
0.00013754109
0.00013684416
0.00013618602
0.00013556802
0.00013497998
0.00013442563
0.00013389456
0.00013339258
0.00013290865
0.00013245051
0.00013200617
0.00013158526
0.00013117461
0.00013078568
0.00013040403
0.00013004286
0.00012968642
0.00012934956
0.00012901525
0.00012869982
0.00012838508
0.00012808869
0.00012779134
0.00012751202
0.00012723017
0.00012696631
0.00012669826
0.00012644854
0.00012619277
0.00012595612
0.00012571128
0.00012548673
0.00012525172
0.00012503832
0.00012481234
0.00012460903
0.00012439162
0.00012419725
0.00012398818
0.00012380156
0.00012360076
0.0001234208
0.00012322815
0.00012305395
0.00012286926
0.0001227001
0.00012252315
0.00012235838
0.00012218897
0.00012202801
0.00012186595
0.00012170839
0.00012155324
0.00012139903
0.00012124999
0.00012109961
0.00012095543
0.0001208097
0.00012066902
0.00012052864
0.00012039067
0.00012025536
0.00012012069
0.00011998875
0.00011985909
0.00011972847
0.00011960481
0.00011947538
0.00011935605
0.0001192304
0.00011911193
0.00011899282
0.00011887342
0.00011876056
0.000118642
0.00011853214
0.00011841793
0.00011830713
0.00011820105
0.00011808561
0.00011798957
0.00011787044
0.00011778071
0.00011766019
0.00011757572
0.00011746085
0.00011737406
0.00011727208
0.00011709339
0.00011711575
0.00014889137
0.00014712834
0.00014558632
0.00014422046
0.00014299461
0.00014188655
0.00014087363
0.00013994514
0.00013908443
0.00013828769
0.00013754074
0.00013684454
0.00013618557
0.00013556849
0.00013497944
0.00013442619
0.00013389393
0.00013339322
0.00013290795
0.00013245121
0.00013200541
0.00013158602
0.00013117379
0.0001307865
0.00013040315
0.00013004375
0.00012968549
0.00012935055
0.00012901423
0.00012870092
0.00012838399
0.00012808988
0.00012779023
0.00012751323
0.00012722916
0.00012696738
0.00012669753
0.00012644926
0.00012619254
0.00012595627
0.00012571174
0.00012548618
0.00012525292
0.0001250371
0.00012481414
0.00012460741
0.00012439365
0.00012419566
0.00012398995
0.0001238005
0.00012360178
0.00012342069
0.00012322808
0.00012305506
0.00012286789
0.00012270259
0.00012252032
0.0001223624
0.00012218456
0.00012203365
0.00012185995
0.00012171551
0.00012154596
0.00012140711
0.0001212422
0.00012110766
0.00012094828
0.0001208165
0.00012066363
0.00012053335
0.00012038738
0.00012025836
0.00012011835
0.00011999179
0.00011985574
0.00011973313
0.0001195999
0.00011948075
0.00011935198
0.00011923306
0.00011911221
0.00011899019
0.00011887891
0.00011875372
0.00011865007
0.00011852448
0.00011842509
0.00011830213
0.00011820387
0.000118086
0.00011798776
0.00011787282
0.00011777898
0.00011766388
0.00011757521
0.0001174533
0.00011737938
0.00011725047
0.0001172851
0.0001168558
0.00014889137
0.00014712834
0.00014558632
0.00014422046
0.00014299461
0.00014188654
0.00014087363
0.00013994513
0.00013908443
0.00013828768
0.00013754074
0.00013684452
0.00013618556
0.00013556847
0.00013497943
0.00013442616
0.00013389392
0.00013339318
0.00013290793
0.00013245118
0.0001320054
0.00013158598
0.00013117378
0.00013078647
0.00013040315
0.00013004373
0.00012968549
0.00012935054
0.00012901426
0.00012870093
0.00012838403
0.00012808991
0.00012779029
0.00012751329
0.00012722924
0.00012696746
0.00012669763
0.00012644938
0.00012619267
0.00012595641
0.00012571188
0.00012548634
0.00012525309
0.00012503728
0.00012481433
0.0001246076
0.00012439385
0.00012419586
0.00012399016
0.00012380071
0.000123602
0.00012342091
0.0001232283
0.00012305528
0.00012286811
0.00012270282
0.00012252054
0.00012236263
0.00012218478
0.00012203388
0.00012186017
0.00012171574
0.00012154618
0.00012140734
0.00012124242
0.00012110789
0.0001209485
0.00012081673
0.00012066385
0.00012053358
0.0001203876
0.00012025859
0.00012011857
0.00011999201
0.00011985595
0.00011973335
0.00011960012
0.00011948097
0.0001193522
0.00011923328
0.00011911243
0.00011899041
0.00011887913
0.00011875394
0.00011865029
0.0001185247
0.0001184253
0.00011830235
0.00011820408
0.00011808622
0.00011798798
0.00011787304
0.0001177792
0.0001176641
0.00011757542
0.00011745352
0.00011737959
0.00011725068
0.00011728532
0.00011685603
0.0001488914
0.00014712829
0.00014558638
0.00014422037
0.00014299472
0.0001418864
0.00014087379
0.00013994492
0.00013908467
0.00013828737
0.00013754106
0.00013684411
0.00013618598
0.00013556796
0.00013497993
0.00013442556
0.0001338945
0.0001333925
0.00013290859
0.00013245043
0.00013200611
0.00013158518
0.00013117456
0.00013078561
0.00013040399
0.00013004282
0.00012968642
0.00012934956
0.00012901529
0.00012869987
0.00012838517
0.0001280888
0.0001277915
0.00012751221
0.00012723041
0.00012696657
0.00012669857
0.00012644889
0.00012619315
0.00012595654
0.00012571173
0.00012548721
0.00012525223
0.00012503885
0.00012481291
0.00012460961
0.00012439223
0.00012419786
0.00012398882
0.0001238022
0.00012360142
0.00012342146
0.00012322882
0.00012305462
0.00012286994
0.00012270078
0.00012252383
0.00012235907
0.00012218965
0.00012202871
0.00012186663
0.00012170908
0.00012155391
0.00012139972
0.00012125067
0.0001211003
0.00012095611
0.00012081038
0.00012066969
0.00012052932
0.00012039135
0.00012025604
0.00012012136
0.00011998942
0.00011985976
0.00011972914
0.00011960548
0.00011947605
0.00011935672
0.00011923107
0.0001191126
0.00011899349
0.00011887409
0.00011876122
0.00011864266
0.0001185328
0.00011841859
0.00011830779
0.00011820171
0.00011808627
0.00011799024
0.0001178711
0.00011778137
0.00011766085
0.00011757639
0.00011746151
0.00011737472
0.00011727274
0.00011709406
0.00011711641
0.0001488914
0.0001471283
0.00014558638
0.00014422037
0.00014299471
0.0001418864
0.00014087378
0.00013994491
0.00013908465
0.00013828737
0.00013754104
0.00013684411
0.00013618595
0.00013556795
0.0001349799
0.00013442554
0.00013389446
0.00013339249
0.00013290854
0.00013245041
0.00013200607
0.00013158516
0.00013117451
0.0001307856
0.00013040396
0.00013004282
0.0001296864
0.00012934957
0.00012901529
0.0001286999
0.0001283852
0.00012808886
0.00012779156
0.00012751229
0.0001272305
0.00012696668
0.0001266987
0.00012644903
0.00012619331
0.00012595671
0.00012571192
0.00012548742
0.00012525244
0.00012503908
0.00012481314
0.00012460987
0.00012439247
0.00012419813
0.00012398908
0.00012380248
0.00012360169
0.00012342174
0.0001232291
0.0001230549
0.00012287023
0.00012270106
0.00012252412
0.00012235934
0.00012218995
0.00012202898
0.00012186692
0.00012170935
0.0001215542
0.00012139999
0.00012125095
0.00012110056
0.00012095639
0.00012081066
0.00012066997
0.00012052959
0.00012039162
0.00012025631
0.00012012164
0.00011998969
0.00011986003
0.00011972941
0.00011960575
0.00011947632
0.00011935699
0.00011923134
0.00011911286
0.00011899376
0.00011887436
0.00011876149
0.00011864292
0.00011853307
0.00011841886
0.00011830806
0.00011820197
0.00011808654
0.0001179905
0.00011787136
0.00011778164
0.00011766111
0.00011757665
0.00011746178
0.00011737498
0.00011727301
0.00011709432
0.00011711668
0.00014889137
0.00014712834
0.00014558632
0.00014422046
0.0001429946
0.00014188654
0.00014087361
0.00013994512
0.0001390844
0.00013828765
0.00013754069
0.00013684448
0.00013618549
0.00013556841
0.00013497934
0.00013442609
0.00013389382
0.0001333931
0.00013290782
0.00013245109
0.00013200528
0.0001315859
0.00013117368
0.0001307864
0.00013040307
0.00013004369
0.00012968545
0.00012935054
0.00012901427
0.00012870099
0.00012838411
0.00012809005
0.00012779046
0.00012751352
0.00012722951
0.00012696779
0.00012669801
0.0001264498
0.00012619314
0.00012595693
0.00012571245
0.00012548695
0.00012525374
0.00012503796
0.00012481503
0.00012460834
0.0001243946
0.00012419664
0.00012399095
0.00012380153
0.00012360282
0.00012342174
0.00012322914
0.00012305612
0.00012286896
0.00012270366
0.0001225214
0.00012236347
0.00012218564
0.00012203471
0.00012186103
0.00012171657
0.00012154704
0.00012140817
0.00012124327
0.00012110871
0.00012094934
0.00012081755
0.00012066469
0.0001205344
0.00012038844
0.00012025941
0.00012011939
0.00011999283
0.00011985678
0.00011973417
0.00011960094
0.00011948178
0.00011935302
0.00011923409
0.00011911324
0.00011899122
0.00011887994
0.00011875475
0.0001186511
0.00011852551
0.00011842611
0.00011830315
0.00011820489
0.00011808702
0.00011798879
0.00011787385
0.00011778001
0.0001176649
0.00011757623
0.00011745432
0.0001173804
0.00011725149
0.00011728612
0.00011685683
0.00014889137
0.00014712834
0.00014558632
0.00014422045
0.00014299461
0.00014188653
0.00014087361
0.0001399451
0.0001390844
0.00013828763
0.00013754068
0.00013684444
0.00013618548
0.00013556837
0.00013497933
0.00013442603
0.0001338938
0.00013339304
0.0001329078
0.00013245102
0.00013200526
0.00013158583
0.00013117365
0.00013078634
0.00013040305
0.00013004364
0.00012968544
0.00012935051
0.00012901428
0.00012870099
0.00012838415
0.00012809009
0.00012779053
0.00012751359
0.00012722962
0.00012696791
0.00012669815
0.00012644997
0.00012619333
0.00012595714
0.00012571268
0.00012548719
0.000125254
0.00012503823
0.00012481533
0.00012460863
0.00012439492
0.00012419695
0.00012399128
0.00012380185
0.00012360315
0.00012342207
0.00012322947
0.00012305646
0.00012286929
0.00012270401
0.00012252172
0.00012236382
0.00012218596
0.00012203507
0.00012186135
0.00012171692
0.00012154735
0.00012140852
0.00012124359
0.00012110906
0.00012094966
0.00012081789
0.00012066501
0.00012053473
0.00012038875
0.00012025974
0.00012011971
0.00011999316
0.0001198571
0.00011973449
0.00011960125
0.00011948211
0.00011935333
0.00011923441
0.00011911356
0.00011899154
0.00011888026
0.00011875507
0.00011865142
0.00011852583
0.00011842643
0.00011830347
0.00011820521
0.00011808734
0.0001179891
0.00011787416
0.00011778032
0.00011766522
0.00011757654
0.00011745463
0.00011738071
0.0001172518
0.00011728644
0.00011685714
0.0001488914
0.0001471283
0.00014558638
0.00014422037
0.0001429947
0.00014188639
0.00014087376
0.00013994489
0.00013908462
0.00013828733
0.00013754098
0.00013684405
0.00013618587
0.00013556787
0.00013497979
0.00013442544
0.00013389433
0.00013339237
0.0001329084
0.00013245028
0.00013200591
0.00013158503
0.00013117436
0.00013078548
0.00013040383
0.00013004273
0.00012968631
0.00012934953
0.00012901527
0.00012869994
0.00012838527
0.000128089
0.00012779174
0.00012751255
0.0001272308
0.00012696707
0.00012669913
0.00012644954
0.00012619388
0.00012595734
0.00012571261
0.00012548815
0.00012525324
0.0001250399
0.00012481401
0.00012461075
0.00012439341
0.00012419906
0.00012399006
0.00012380345
0.00012360269
0.00012342273
0.00012323011
0.00012305591
0.00012287123
0.00012270208
0.00012252512
0.00012236037
0.00012219094
0.00012203001
0.0001218679
0.00012171038
0.00012155518
0.00012140102
0.00012125193
0.00012110158
0.00012095736
0.00012081166
0.00012067095
0.00012053059
0.0001203926
0.0001202573
0.00012012262
0.00011999067
0.000119861
0.00011973039
0.00011960672
0.0001194773
0.00011935796
0.00011923231
0.00011911384
0.00011899472
0.00011887533
0.00011876245
0.0001186439
0.00011853402
0.00011841983
0.00011830902
0.00011820294
0.0001180875
0.00011799146
0.00011787232
0.0001177826
0.00011766207
0.00011757761
0.00011746273
0.00011737595
0.00011727396
0.00011709529
0.00011711762
0.00014889137
0.00014712834
0.00014558632
0.00014422045
0.0001429946
0.00014188652
0.00014087359
0.00013994508
0.00013908437
0.00013828759
0.00013754064
0.00013684439
0.00013618543
0.0001355683
0.00013497925
0.00013442594
0.0001338937
0.00013339294
0.00013290769
0.00013245091
0.00013200514
0.00013158571
0.00013117353
0.00013078622
0.00013040295
0.00013004355
0.00012968537
0.00012935046
0.00012901426
0.00012870099
0.0001283842
0.00012809016
0.00012779067
0.00012751376
0.00012722985
0.00012696818
0.00012669849
0.00012645035
0.00012619377
0.00012595762
0.00012571321
0.00012548776
0.0001252546
0.00012503888
0.00012481598
0.00012460934
0.00012439561
0.00012419769
0.000123992
0.0001238026
0.0001236039
0.00012342283
0.00012323023
0.00012305722
0.00012287007
0.00012270475
0.00012252251
0.00012236455
0.00012218676
0.00012203579
0.00012186214
0.00012171764
0.00012154814
0.00012140923
0.00012124437
0.00012110977
0.00012095043
0.00012081861
0.00012066577
0.00012053545
0.0001203895
0.00012026046
0.00012012046
0.00011999388
0.00011985784
0.00011973521
0.000119602
0.00011948282
0.00011935407
0.00011923513
0.00011911429
0.00011899226
0.00011888098
0.00011875579
0.00011865213
0.00011852655
0.00011842714
0.00011830419
0.00011820592
0.00011808805
0.00011798982
0.00011787487
0.00011778104
0.00011766592
0.00011757726
0.00011745534
0.00011738143
0.00011725251
0.00011728715
0.00011685788
0.0001488914
0.00014712829
0.00014558638
0.00014422036
0.0001429947
0.00014188637
0.00014087375
0.00013994486
0.0001390846
0.00013828728
0.00013754095
0.00013684397
0.00013618582
0.00013556777
0.00013497972
0.00013442532
0.00013389424
0.00013339222
0.00013290829
0.00013245012
0.00013200579
0.00013158486
0.00013117424
0.00013078531
0.00013040371
0.00013004258
0.00012968622
0.00012934943
0.00012901523
0.0001286999
0.00012838529
0.00012808904
0.00012779186
0.0001275127
0.00012723103
0.00012696735
0.00012669948
0.00012644994
0.00012619434
0.00012595785
0.00012571317
0.00012548876
0.00012525389
0.00012504059
0.00012481474
0.00012461149
0.00012439418
0.00012419984
0.00012399086
0.00012380426
0.00012360351
0.00012342356
0.00012323093
0.00012305674
0.00012287206
0.00012270291
0.00012252594
0.0001223612
0.00012219175
0.00012203083
0.00012186871
0.00012171119
0.00012155599
0.00012140182
0.00012125273
0.00012110237
0.00012095816
0.00012081245
0.00012067174
0.00012053137
0.00012039338
0.00012025807
0.00012012339
0.00011999144
0.00011986178
0.00011973116
0.00011960749
0.00011947807
0.00011935872
0.00011923307
0.0001191146
0.00011899548
0.00011887609
0.0001187632
0.00011864465
0.00011853477
0.00011842058
0.00011830977
0.00011820369
0.00011808825
0.00011799221
0.00011787307
0.00011778335
0.00011766282
0.00011757836
0.00011746348
0.00011737669
0.00011727471
0.00011709604
0.00011711838
0.0001488914
0.00014712829
0.00014558637
0.00014422036
0.00014299469
0.00014188637
0.00014087373
0.00013994486
0.00013908457
0.00013828727
0.00013754091
0.00013684396
0.00013618576
0.00013556774
0.00013497965
0.00013442528
0.00013389415
0.00013339217
0.00013290818
0.00013245005
0.00013200568
0.00013158478
0.00013117412
0.00013078523
0.0001304036
0.0001300425
0.00012968613
0.00012934937
0.00012901516
0.00012869987
0.00012838528
0.00012808906
0.0001277919
0.00012751278
0.00012723115
0.00012696749
0.00012669967
0.00012645016
0.0001261946
0.00012595815
0.00012571349
0.00012548912
0.00012525426
0.000125041
0.00012481513
0.00012461194
0.0001243946
0.00012420032
0.0001239913
0.00012380473
0.00012360396
0.00012342403
0.0001232314
0.0001230572
0.00012287253
0.00012270336
0.00012252643
0.00012236163
0.00012219224
0.00012203126
0.0001218692
0.00012171161
0.00012155647
0.00012140224
0.00012125321
0.0001211028
0.00012095862
0.00012081287
0.00012067219
0.0001205318
0.00012039383
0.00012025851
0.00012012383
0.00011999188
0.00011986222
0.00011973159
0.00011960793
0.00011947849
0.00011935916
0.0001192335
0.00011911502
0.00011899592
0.00011887651
0.00011876364
0.00011864507
0.00011853521
0.000118421
0.0001183102
0.00011820411
0.00011808868
0.00011799264
0.0001178735
0.00011778377
0.00011766325
0.00011757878
0.00011746391
0.00011737711
0.00011727514
0.00011709645
0.00011711881
0.00014889137
0.00014712834
0.00014558632
0.00014422044
0.00014299459
0.0001418865
0.00014087356
0.00013994504
0.00013908432
0.00013828752
0.00013754056
0.00013684429
0.0001361853
0.00013556815
0.00013497909
0.00013442575
0.00013389349
0.0001333927
0.00013290744
0.00013245063
0.00013200486
0.00013158541
0.00013117323
0.00013078592
0.00013040265
0.00013004326
0.00012968512
0.00012935023
0.00012901409
0.00012870087
0.00012838416
0.0001280902
0.0001277908
0.00012751399
0.00012723019
0.00012696863
0.00012669905
0.00012645102
0.00012619455
0.0001259585
0.00012571418
0.00012548882
0.00012525573
0.00012504007
0.00012481722
0.00012461062
0.00012439693
0.00012419904
0.00012399337
0.00012380398
0.0001236053
0.00012342423
0.00012323164
0.00012305862
0.00012287147
0.00012270615
0.00012252391
0.00012236595
0.00012218814
0.00012203717
0.00012186352
0.00012171901
0.00012154951
0.00012141059
0.00012124573
0.00012111112
0.00012095178
0.00012081995
0.00012066711
0.00012053679
0.00012039084
0.00012026179
0.00012012178
0.0001199952
0.00011985916
0.00011973653
0.00011960331
0.00011948413
0.00011935538
0.00011923644
0.00011911559
0.00011899356
0.00011888228
0.00011875709
0.00011865343
0.00011852785
0.00011842844
0.00011830548
0.00011820722
0.00011808934
0.00011799111
0.00011787616
0.00011778233
0.00011766721
0.00011757855
0.00011745663
0.00011738272
0.0001172538
0.00011728844
0.00011685917
0.0001488914
0.00014712829
0.00014558637
0.00014422036
0.00014299468
0.00014188636
0.00014087371
0.00013994482
0.00013908452
0.00013828722
0.00013754084
0.00013684388
0.00013618566
0.00013556763
0.00013497951
0.00013442513
0.00013389398
0.00013339198
0.00013290797
0.00013244983
0.00013200543
0.00013158454
0.00013117385
0.00013078498
0.00013040333
0.00013004226
0.00012968588
0.00012934917
0.00012901497
0.00012869976
0.00012838518
0.00012808907
0.00012779195
0.00012751294
0.00012723136
0.00012696782
0.00012670008
0.00012645067
0.00012619519
0.00012595882
0.00012571425
0.00012548992
0.00012525514
0.0001250419
0.00012481612
0.00012461291
0.00012439564
0.00012420133
0.00012399237
0.00012380577
0.00012360503
0.00012342509
0.00012323246
0.00012305827
0.00012287358
0.00012270443
0.00012252745
0.00012236271
0.00012219325
0.00012203234
0.00012187019
0.00012171269
0.00012155745
0.00012140331
0.00012125418
0.00012110385
0.0001209596
0.00012081391
0.00012067318
0.00012053282
0.00012039482
0.00012025951
0.00012012483
0.00011999288
0.0001198632
0.00011973259
0.0001196089
0.00011947949
0.00011936014
0.00011923448
0.00011911601
0.00011899688
0.0001188775
0.0001187646
0.00011864606
0.00011853617
0.00011842198
0.00011831116
0.00011820509
0.00011808964
0.00011799361
0.00011787446
0.00011778474
0.00011766421
0.00011757975
0.00011746486
0.00011737809
0.00011727609
0.00011709743
0.00011711976
0.00014889137
0.00014712834
0.00014558631
0.00014422043
0.00014299458
0.00014188648
0.00014087354
0.000139945
0.00013908427
0.00013828746
0.00013754048
0.0001368442
0.00013618519
0.00013556802
0.00013497893
0.00013442559
0.0001338933
0.00013339249
0.0001329072
0.00013245038
0.00013200458
0.00013158512
0.00013117293
0.00013078561
0.00013040234
0.00013004296
0.00012968482
0.00012934996
0.00012901385
0.00012870068
0.00012838404
0.00012809014
0.00012779084
0.00012751411
0.00012723042
0.00012696896
0.0001266995
0.00012645156
0.0001261952
0.00012595924
0.00012571501
0.00012548973
0.0001252567
0.0001250411
0.00012481829
0.00012461173
0.00012439806
0.00012420019
0.00012399453
0.00012380516
0.00012360647
0.0001234254
0.00012323281
0.00012305979
0.00012287263
0.00012270731
0.00012252506
0.00012236708
0.00012218929
0.00012203829
0.00012186465
0.00012172011
0.00012155063
0.00012141169
0.00012124684
0.00012111221
0.00012095288
0.00012082103
0.0001206682
0.00012053787
0.00012039192
0.00012026287
0.00012012286
0.00011999627
0.00011986023
0.00011973759
0.00011960438
0.00011948519
0.00011935644
0.00011923749
0.00011911664
0.00011899461
0.00011888332
0.00011875814
0.00011865447
0.00011852889
0.00011842948
0.00011830652
0.00011820826
0.00011809037
0.00011799215
0.00011787719
0.00011778336
0.00011766824
0.00011757958
0.00011745766
0.00011738375
0.00011725482
0.00011728946
0.0001168602
0.0001488914
0.00014712829
0.00014558637
0.00014422035
0.00014299467
0.00014188633
0.00014087369
0.00013994478
0.00013908449
0.00013828713
0.00013754077
0.00013684376
0.00013618556
0.00013556747
0.00013497937
0.00013442491
0.00013389379
0.00013339171
0.00013290773
0.00013244951
0.00013200514
0.00013158417
0.00013117352
0.00013078458
0.00013040298
0.00013004186
0.00012968554
0.00012934881
0.00012901469
0.00012869948
0.00012838502
0.00012808895
0.00012779195
0.00012751303
0.00012723159
0.00012696816
0.00012670055
0.00012645126
0.00012619591
0.00012595964
0.00012571518
0.00012549093
0.00012525624
0.00012504305
0.00012481732
0.00012461414
0.00012439691
0.0001242026
0.00012399366
0.00012380707
0.00012360633
0.00012342638
0.00012323376
0.00012305956
0.00012287486
0.00012270571
0.00012252871
0.00012236397
0.0001221945
0.00012203358
0.00012187142
0.00012171391
0.00012155867
0.00012140452
0.00012125539
0.00012110505
0.0001209608
0.0001208151
0.00012067437
0.000120534
0.000120396
0.00012026069
0.000120126
0.00011999405
0.00011986437
0.00011973375
0.00011961007
0.00011948065
0.00011936129
0.00011923564
0.00011911716
0.00011899803
0.00011887864
0.00011876575
0.0001186472
0.00011853731
0.00011842312
0.0001183123
0.00011820623
0.00011809078
0.00011799474
0.00011787559
0.00011778588
0.00011766534
0.00011758088
0.000117466