/*--------------------------------*- C++ -*----------------------------------*\
| =========                 |                                                 |
| \\      /  F ield         | OpenFOAM: The Open Source CFD Toolbox           |
|  \\    /   O peration     | Version:  2406                                  |
|   \\  /    A nd           | Website:  www.openfoam.com                      |
|    \\/     M anipulation  |                                                 |
\*---------------------------------------------------------------------------*/
FoamFile
{
    version     2.0;
    format      ascii;
    arch        "LSB;label=32;scalar=64";
    class       volScalarField;
    location    "800";
    object      omega;
}
// * * * * * * * * * * * * * * * * * * * * * * * * * * * * * * * * * * * * * //

dimensions      [0 0 -1 0 0 0 0];

internalField   nonuniform List<scalar> 
16045
(
367.89
320.04481
283.08095
253.69507
229.79194
209.97536
193.28824
179.04378
166.74834
156.02449
146.59529
138.23431
130.77714
124.07737
118.03415
112.546
107.55072
102.97305
98.775838
94.899408
91.323932
87.998901
84.917198
82.033452
79.350434
76.825247
74.468795
72.238818
70.15325
68.16915
66.310796
64.533584
62.86772
61.266173
59.764844
58.313665
56.954119
55.632592
54.396126
53.187125
52.058229
50.947471
49.913174
48.888655
47.938034
46.989589
46.113378
45.232341
44.422635
43.601573
42.851582
42.08408
41.387948
40.668442
40.021087
39.344721
38.741715
38.104238
37.541705
36.93937
36.413905
35.843402
35.351999
34.810389
34.350388
33.835051
33.40409
32.912684
32.508657
32.03908
31.660107
31.210467
30.854863
30.423449
30.089701
29.674965
29.361712
28.962247
28.668259
28.282784
28.006951
27.634297
27.375614
27.014706
26.77226
26.422118
26.19508
25.854798
25.642413
25.311157
25.112738
24.789737
24.604656
24.289196
24.11688
23.808299
23.648223
23.345906
23.19759
22.833739
367.89
320.04477
283.08086
253.69493
229.79176
209.97514
193.28799
179.0435
166.74803
156.02416
146.59493
138.23394
130.77676
124.07697
118.03374
112.54559
107.5503
102.97262
98.775408
94.898976
91.323502
87.998473
84.916774
82.033034
79.350024
76.824845
74.468405
72.23844
70.152887
68.168802
66.310466
64.533271
62.867426
61.265899
59.76459
58.313432
56.953906
55.6324
54.395954
53.186973
52.058096
50.947357
49.913078
48.888576
47.937972
46.989542
46.113345
45.232321
44.422626
43.601575
42.851594
42.084101
41.387977
40.668478
40.021129
39.344768
38.741767
38.104294
37.541765
36.939433
36.41397
35.84347
35.352069
34.810461
34.350461
33.835125
33.404165
32.91276
32.508734
32.039157
31.660184
31.210544
30.854941
30.423526
30.089778
29.675041
29.361789
28.962324
28.668336
28.28286
28.007027
27.634372
27.375689
27.014781
26.772334
26.422192
26.195154
25.854871
25.642486
25.311229
25.11281
24.789808
24.604727
24.289267
24.11695
23.808369
23.648293
23.345975
23.197659
22.833807
367.89
320.04476
283.08084
253.6949
229.79171
209.97509
193.28792
179.04342
166.74795
156.02408
146.59485
138.23386
130.77667
124.07688
118.03365
112.54549
107.55021
102.97253
98.775323
94.898896
91.323426
87.998405
84.916715
82.032983
79.349984
76.824818
74.468392
72.238441
70.152903
68.168834
66.310514
64.533337
62.867509
61.265999
59.764707
58.313565
56.954056
55.632565
54.396134
53.187165
52.0583
50.947572
49.913304
48.88881
47.938211
46.989786
46.113594
45.232573
44.42288
43.60183
42.85185
42.084357
41.388231
40.66873
40.021379
39.345017
38.742013
38.104536
37.542004
36.939669
36.414203
35.843699
35.352294
34.810682
34.350679
33.83534
33.404376
32.912968
32.508939
32.039359
31.660384
31.21074
30.855134
30.423716
30.089967
29.675227
29.361972
28.962504
28.668514
28.283036
28.007202
27.634543
27.375858
27.014949
26.772501
26.422356
26.195316
25.855031
25.642645
25.311386
25.112966
24.789962
24.604879
24.289417
24.1171
23.808517
23.648439
23.34612
23.197803
22.833949
367.89
320.04475
283.08082
253.69487
229.79166
209.97501
193.28783
179.04331
166.74783
156.02394
146.59469
138.23369
130.77648
124.07668
118.03344
112.54528
107.54999
102.97231
98.775095
94.898668
91.323201
87.998182
84.916499
82.032775
79.349788
76.824635
74.468224
72.23829
70.152771
68.168722
66.310424
64.533269
62.867465
61.265979
59.764712
58.313594
56.954109
55.632641
54.396232
53.187285
52.05844
50.94773
49.913478
48.888999
47.938415
46.990002
46.11382
45.232808
44.423123
43.60208
42.852104
42.084615
41.388493
40.668995
40.021645
39.345283
38.74228
38.104803
37.542271
36.939935
36.414467
35.843961
35.352556
34.810942
34.350937
33.835595
33.40463
32.91322
32.509189
32.039606
31.660629
31.210983
30.855375
30.423955
30.090203
29.675461
29.362204
28.962734
28.668742
28.283261
28.007425
27.634765
27.376079
27.015166
26.772716
26.422569
26.195528
25.855241
25.642853
25.311592
25.11317
24.790165
24.605081
24.289617
24.117298
23.808713
23.648635
23.346313
23.197995
22.834139
367.89
320.04475
283.08081
253.69484
229.79163
209.97496
193.28776
179.04324
166.74774
156.02384
146.59458
138.23357
130.77636
124.07655
118.03331
112.54514
107.54985
102.97217
98.774959
94.898537
91.323078
87.998071
84.9164
82.032691
79.349722
76.824588
74.468199
72.238289
70.152796
68.168774
66.310505
64.533379
62.867605
61.26615
59.764912
58.313823
56.954366
55.632925
54.396541
53.187617
52.058793
50.948102
49.913867
48.889403
47.93883
46.990427
46.114254
45.233248
44.423567
43.602526
42.852552
42.085062
41.388939
40.669437
40.022085
39.34572
38.742712
38.10523
37.542693
36.940351
36.414879
35.844367
35.352955
34.811335
34.351325
33.835978
33.405007
32.91359
32.509554
32.039967
31.660985
31.211333
30.85572
30.424295
30.09054
29.675793
29.362531
28.963056
28.669061
28.283577
28.007737
27.635072
27.376383
27.015466
26.773014
26.422863
26.195819
25.855528
25.643138
25.311873
25.113449
24.79044
24.605354
24.289886
24.117566
23.808977
23.648897
23.346572
23.198252
22.834392
367.89
320.04475
283.0808
253.69482
229.79159
209.97491
193.2877
179.04316
166.74765
156.02373
146.59446
138.23343
130.77621
124.0764
118.03314
112.54497
107.54967
102.97199
98.774782
94.898363
91.322911
87.997912
84.916252
82.032559
79.349608
76.824494
74.468129
72.238244
70.15278
68.168788
66.310551
64.533459
62.867719
61.266297
59.765094
58.314039
56.954615
55.633204
54.39685
53.187953
52.059155
50.948486
49.91427
48.889823
47.939265
46.990875
46.114711
45.233712
44.424037
43.603
42.853028
42.085538
41.389415
40.669912
40.022558
39.346188
38.743177
38.105691
37.54315
36.940803
36.415325
35.844808
35.353392
34.811766
34.351751
33.836398
33.405423
32.914001
32.50996
32.040366
31.66138
31.211723
30.856107
30.424677
30.090917
29.676165
29.362901
28.963421
28.669423
28.283933
28.008091
27.635422
27.37673
27.015809
26.773354
26.423199
26.196152
25.855858
25.643465
25.312196
25.11377
24.790757
24.605669
24.290198
24.117875
23.809283
23.649201
23.346873
23.198552
22.834687
367.89
320.04474
283.08079
253.6948
229.79156
209.97487
193.28764
179.04309
166.74756
156.02362
146.59434
138.2333
130.77607
124.07624
118.03298
112.5448
107.5495
102.97182
98.774618
94.898203
91.32276
87.997773
84.91613
82.032456
79.349528
76.824441
74.468105
72.238253
70.152824
68.16887
66.310673
64.533621
62.867924
61.266544
59.765383
58.314368
56.954984
55.63361
54.397291
53.188427
52.059658
50.949015
49.914822
48.890395
47.939853
46.991476
46.115322
45.234331
44.424661
43.603626
42.853655
42.086164
41.390038
40.670531
40.023172
39.346797
38.74378
38.106286
37.543738
36.941383
36.415898
35.845373
35.35395
34.812315
34.352293
33.836931
33.405949
32.914519
32.510471
32.04087
31.661877
31.212213
30.856591
30.425153
30.091388
29.676629
29.36336
28.963874
28.66987
28.284374
28.008528
27.635853
27.377157
27.01623
26.773771
26.42361
26.196561
25.856261
25.643865
25.312591
25.114162
24.791144
24.606053
24.290577
24.118252
23.809655
23.649571
23.347237
23.198914
22.835044
367.89
320.04474
283.08078
253.69478
229.79152
209.97482
193.28758
179.04301
166.74746
156.02351
146.59421
138.23316
130.77591
124.07608
118.0328
112.54462
107.54932
102.97163
98.774428
94.898019
91.322585
87.997609
84.915984
82.032329
79.349427
76.824367
74.468064
72.238248
70.152859
68.168946
66.310794
64.533788
62.868139
61.266806
59.765693
58.314725
56.955385
55.634054
54.397774
53.188946
52.06021
50.949597
49.915428
48.891022
47.940499
46.992136
46.115992
45.235008
44.425343
43.60431
42.854339
42.086847
41.390717
40.671205
40.02384
39.347458
38.744434
38.106932
37.544376
36.942012
36.416519
35.845984
35.354553
34.81291
34.352879
33.837509
33.406519
32.91508
32.511026
32.041416
31.662417
31.212745
30.857117
30.425672
30.091901
29.677135
29.36386
28.964367
28.670359
28.284857
28.009006
27.636325
27.377624
27.016692
26.774229
26.424062
26.197009
25.856704
25.644304
25.313025
25.114593
24.79157
24.606476
24.290995
24.118667
23.810065
23.649978
23.34764
23.199314
22.835439
367.89
320.04474
283.08076
253.69475
229.79149
209.97477
193.28752
179.04292
166.74736
156.02339
146.59408
138.233
130.77574
124.07589
118.03261
112.54442
107.54911
102.97142
98.774219
94.897816
91.322392
87.99743
84.915823
82.032192
79.349317
76.82429
74.468026
72.238251
70.152908
68.169044
66.310944
64.533992
62.868398
61.267122
59.766064
58.31515
56.955863
55.634582
54.398349
53.189563
52.060865
50.950286
49.916147
48.891766
47.941262
46.992915
46.116783
45.235808
44.426147
43.605116
42.855144
42.087649
41.391515
40.671997
40.024625
39.348234
38.745201
38.10769
37.545124
36.942749
36.417246
35.8467
35.355259
34.813605
34.353565
33.838184
33.407185
32.915736
32.511673
32.042053
31.663046
31.213364
30.857729
30.426275
30.092497
29.677722
29.364441
28.96494
28.670926
28.285416
28.009559
27.636871
27.378165
27.017225
26.774758
26.424584
26.197527
25.857215
25.644811
25.313525
25.115089
24.79206
24.606963
24.291475
24.119144
23.810536
23.650447
23.348103
23.199774
22.835892
367.89
320.04473
283.08075
253.69473
229.79145
209.97472
193.28744
179.04283
166.74725
156.02326
146.59392
138.23283
130.77556
124.07569
118.03239
112.54419
107.54887
102.97118
98.77398
94.89758
91.322165
87.997217
84.91563
82.032023
79.349179
76.824187
74.467964
72.238235
70.152944
68.169135
66.311094
64.534203
62.868671
61.267458
59.766464
58.315612
56.956384
55.63516
54.398979
53.190242
52.061587
50.951045
49.916939
48.892584
47.942103
46.993772
46.117652
45.236685
44.427028
43.605999
42.856025
42.088525
41.392385
40.672859
40.025479
39.349077
38.746033
38.10851
37.545933
36.943546
36.418032
35.847473
35.356021
34.814354
34.354304
33.83891
33.407902
32.916441
32.512369
32.042738
31.663722
31.21403
30.858387
30.426923
30.093138
29.678354
29.365066
28.965556
28.671536
28.286017
28.010155
27.637458
27.378747
27.0178
26.775327
26.425147
26.198084
25.857765
25.645357
25.314065
25.115625
24.792589
24.607488
24.291994
24.119659
23.811045
23.650952
23.348602
23.200271
22.836381
367.89
320.04472
283.08073
253.69471
229.79142
209.97466
193.28737
179.04273
166.74712
156.02311
146.59375
138.23264
130.77534
124.07546
118.03215
112.54393
107.5486
102.9709
98.773702
94.897304
91.321898
87.996964
84.915397
82.031816
79.349006
76.824053
74.467876
72.238197
70.152964
68.169216
66.311242
64.53442
62.868961
61.26782
59.7669
58.316119
56.95696
55.635801
54.399681
53.190999
52.062392
50.951894
49.917825
48.893501
47.943043
46.994732
46.118626
45.237667
44.428015
43.606985
42.85701
42.089505
41.393358
40.673821
40.026431
39.350018
38.746962
38.109425
37.546835
36.944434
36.418908
35.848335
35.356869
34.815189
34.355127
33.839721
33.4087
32.917226
32.513144
32.043502
31.664476
31.214772
30.859119
30.427645
30.093852
29.679058
29.365762
28.966242
28.672214
28.286687
28.010818
27.638112
27.379394
27.018439
26.775961
26.425772
26.198704
25.858377
25.645964
25.314664
25.116219
24.793176
24.608071
24.29257
24.120231
23.81161
23.651514
23.349157
23.200822
22.836924
367.89
320.04472
283.08073
253.69469
229.79137
209.9746
193.28728
179.04262
166.74698
156.02295
146.59356
138.23242
130.7751
124.07519
118.03186
112.54363
107.54829
102.97058
98.773374
94.896977
91.321579
87.996657
84.915112
82.031557
79.348782
76.82387
74.467743
72.238121
70.152951
68.169272
66.311373
64.534628
62.869251
61.268193
59.767354
58.316655
56.957575
55.636489
54.400438
53.191819
52.063269
50.952819
49.91879
48.894501
47.944069
46.995778
46.119685
45.238735
44.429087
43.608057
42.858078
42.090565
41.394409
40.674862
40.027459
39.351031
38.747962
38.110409
37.547805
36.945388
36.419846
35.849258
35.357779
34.816083
34.356007
33.840586
33.409554
32.918067
32.513972
32.044316
31.66528
31.215564
30.859901
30.428415
30.094612
29.679807
29.366503
28.966973
28.672938
28.2874
28.011523
27.638808
27.380084
27.019119
26.776635
26.426437
26.199364
25.859029
25.646611
25.315302
25.116853
24.793801
24.608692
24.293183
24.12084
23.812212
23.652111
23.349747
23.201409
22.837502
367.88998
320.04471
283.08071
253.69465
229.79132
209.97452
193.28717
179.04249
166.74683
156.02276
146.59334
138.23217
130.77482
124.07489
118.03153
112.54328
107.54792
102.9702
98.77299
94.89659
91.321197
87.996286
84.914761
82.031233
79.348494
76.823626
74.467553
72.237991
70.152892
68.169289
66.311473
64.534817
62.869533
61.268568
59.767824
58.317217
56.958226
55.637226
54.401253
53.192706
52.064219
50.953825
49.919841
48.89559
47.945188
46.996919
46.120841
45.2399
44.430255
43.609224
42.859239
42.091719
41.395552
40.675992
40.028575
39.352131
38.749046
38.111476
37.548856
36.946421
36.420863
35.850257
35.358764
34.817051
34.356961
33.841523
33.410477
32.918975
32.514868
32.045198
31.66615
31.21642
30.860747
30.429248
30.095435
29.680618
29.367305
28.967764
28.67372
28.288171
28.012287
27.639562
27.380831
27.019856
26.777365
26.427158
26.200079
25.859734
25.64731
25.315993
25.117538
24.794479
24.609364
24.293847
24.1215
23.812863
23.652758
23.350386
23.202044
22.838128
367.88998
320.04469
283.08069
253.69461
229.79126
209.97444
193.28706
179.04234
166.74665
156.02255
146.5931
138.23189
130.77451
124.07455
118.03116
112.54288
107.5475
102.96976
98.772538
94.896132
91.32074
87.995839
84.914331
82.030829
79.348127
76.823305
74.467289
72.237793
70.15277
68.169251
66.311529
64.534971
62.86979
61.268932
59.768295
58.317794
56.958905
55.638002
54.402119
53.193653
52.065237
50.954905
49.920974
48.896765
47.946394
46.998149
46.122087
45.241155
44.431511
43.610478
42.860486
42.092956
41.396776
40.677199
40.029767
39.353305
38.750203
38.112613
37.549974
36.94752
36.421945
35.85132
35.359808
34.818076
34.357971
33.842517
33.411456
32.919936
32.515816
32.046131
31.667071
31.217326
30.861641
30.430128
30.096306
29.681476
29.368153
28.968599
28.674547
28.288987
28.013094
27.640357
27.381619
27.020634
26.778136
26.427919
26.200833
25.860478
25.648049
25.316722
25.118262
24.795192
24.610073
24.294547
24.122195
23.81355
23.65344
23.35106
23.202713
22.838787
367.88998
320.04469
283.08067
253.69458
229.7912
209.97435
193.28694
179.04218
166.74645
156.02231
146.59282
138.23157
130.77415
124.07415
118.03073
112.54241
107.54701
102.96925
98.772007
94.89559
91.320196
87.995298
84.913807
82.030329
79.347664
76.822888
74.466932
72.237506
70.152566
68.16914
66.311521
64.535073
62.87001
61.269272
59.768758
58.318377
56.959605
55.638813
54.403032
53.194659
52.066323
50.956062
49.922188
48.898026
47.94769
46.99947
46.123424
45.242501
44.432859
43.611821
42.861822
42.094278
41.398084
40.67849
40.031039
39.354557
38.751434
38.113823
37.551164
36.948688
36.423094
35.852448
35.360918
34.819167
34.359045
33.843571
33.412495
32.920957
32.516823
32.047121
31.668048
31.218287
30.86259
30.431063
30.097229
29.682386
29.369052
28.969485
28.675424
28.289852
28.013951
27.641202
27.382456
27.02146
26.778955
26.428727
26.201634
25.861269
25.648833
25.317497
25.11903
24.795952
24.610826
24.295291
24.122934
23.81428
23.654166
23.351777
23.203426
22.839489
367.88998
320.04468
283.08064
253.69453
229.79113
209.97424
193.2868
179.042
166.74623
156.02204
146.5925
138.23121
130.77375
124.0737
118.03024
112.54188
107.54645
102.96865
98.771387
94.894952
91.31955
87.994652
84.913171
82.029714
79.347084
76.822355
74.466462
72.23711
70.15226
68.168935
66.31143
64.535105
62.870173
61.269572
59.769197
58.318954
56.960315
55.63965
54.403985
53.195718
52.067474
50.957292
49.923482
48.899372
47.949074
47.000882
46.124853
45.243937
44.434296
43.613252
42.863241
42.095683
41.399471
40.679856
40.032384
39.355879
38.752735
38.115099
37.552419
36.949919
36.424304
35.853635
35.362085
34.820312
34.360172
33.844678
33.413584
32.922028
32.517878
32.048159
31.669071
31.219295
30.863585
30.432042
30.098197
29.683339
29.369994
28.970414
28.676342
28.290757
28.014847
27.642086
27.383331
27.022323
26.77981
26.429571
26.20247
25.862095
25.649652
25.318305
25.119832
24.796743
24.611612
24.296067
24.123705
23.815041
23.654922
23.352523
23.204167
22.840219
367.88998
320.04467
283.08061
253.69448
229.79105
209.97413
193.28664
179.0418
166.74598
156.02174
146.59215
138.23081
130.77329
124.07319
118.02968
112.54128
107.54579
102.96796
98.770666
94.894205
91.318786
87.993881
84.912406
82.028966
79.346368
76.821684
74.465854
72.236581
70.151826
68.168611
66.311232
64.535045
62.870262
61.269815
59.769597
58.319512
56.961026
55.640506
54.404974
53.196829
52.068689
50.958596
49.924857
48.900804
47.950548
47.002386
46.126372
45.245464
44.435821
43.61477
42.864745
42.097168
41.400936
40.681299
40.033803
39.357272
38.754102
38.116441
37.553737
36.951211
36.425573
35.854879
35.363309
34.821513
34.361352
33.845837
33.414726
32.92315
32.518984
32.049245
31.670143
31.22035
30.864626
30.433067
30.099209
29.684336
29.370981
28.971386
28.677304
28.291705
28.015785
27.643012
27.384249
27.023228
26.780707
26.430456
26.203349
25.862962
25.650512
25.319154
25.120675
24.797575
24.612439
24.296883
24.124515
23.815841
23.655717
23.353309
23.204949
22.840989
367.88997
320.04466
283.08058
253.69442
229.79096
209.97399
193.28647
179.04158
166.7457
156.0214
146.59176
138.23035
130.77277
124.07261
118.02904
112.54059
107.54505
102.96717
98.769832
94.893335
91.317891
87.992969
84.911493
82.028062
79.345492
76.820852
74.465084
72.235891
70.151238
68.168142
66.310902
64.534867
62.870251
61.269979
59.769941
58.320037
56.961726
55.641374
54.405995
53.197987
52.069966
50.959974
49.926315
48.902325
47.952113
47.003981
46.127984
45.247081
44.437434
43.616372
42.86633
42.098732
41.402477
40.682812
40.03529
39.35873
38.755533
38.117843
37.555112
36.952559
36.426895
35.856176
35.364583
34.822762
34.36258
33.847042
33.415912
32.924316
32.520132
32.050373
31.671255
31.221444
30.865707
30.43413
30.100259
29.68537
29.372003
28.972393
28.6783
28.292687
28.016757
27.64397
27.385197
27.024164
26.781634
26.43137
26.204255
25.863856
25.651399
25.320029
25.121543
24.798432
24.613289
24.297722
24.125348
23.816664
23.656534
23.354115
23.20575
22.841778
367.88997
320.04464
283.08055
253.69436
229.79086
209.97385
193.28627
179.04133
166.74539
156.02103
146.59132
138.22984
130.7722
124.07197
118.02833
112.5398
107.54421
102.96626
98.768873
94.892329
91.316849
87.9919
84.910411
82.026981
79.344432
76.81983
74.464124
72.235011
70.150466
68.167497
66.310408
64.534544
62.870114
61.270042
59.77021
58.320514
56.962404
55.642245
54.407041
53.199192
52.071304
50.961427
49.927856
48.903936
47.953771
47.00567
46.129688
45.248789
44.439135
43.618057
42.867996
42.100373
41.40409
40.684394
40.036842
39.36025
38.757024
38.119302
37.556542
36.953958
36.428269
35.857521
35.365903
34.824056
34.363853
33.848291
33.417141
32.925522
32.52132
32.051542
31.672408
31.222577
30.866825
30.435232
30.101347
29.686442
29.373062
28.973437
28.679333
28.293706
28.017766
27.644965
27.386183
27.025137
26.782599
26.432323
26.205199
25.864788
25.652323
25.320943
25.122449
24.799327
24.614178
24.298601
24.126221
23.817526
23.657391
23.354962
23.206592
22.842608
367.88996
320.04462
283.08051
253.69429
229.79075
209.9737
193.28607
179.04105
166.74505
156.02062
146.59083
138.22928
130.77155
124.07124
118.02753
112.53892
107.54325
102.96524
98.767777
94.891172
91.315643
87.990653
84.90914
82.0257
79.343162
76.818589
74.46294
72.233908
70.149473
68.16664
66.309716
64.534041
62.869822
61.269976
59.77038
58.320923
56.963047
55.64311
54.408108
53.200441
52.072707
50.962957
49.929485
48.90564
47.955526
47.007456
46.131487
45.250588
44.440924
43.619827
42.86974
42.102087
41.405772
40.686042
40.038456
39.361828
38.758569
38.120812
37.558022
36.955405
36.429687
35.858909
35.367266
34.825392
34.365164
33.849577
33.418406
32.926764
32.522543
32.052743
31.673591
31.223741
30.867973
30.436361
30.102462
29.687539
29.374147
28.974506
28.68039
28.294747
28.018796
27.645981
27.387188
27.026128
26.78358
26.43329
26.206158
25.865734
25.653261
25.321867
25.123366
24.800232
24.615076
24.299486
24.1271
23.818393
23.658252
23.355812
23.207436
22.843439
367.88996
320.0446
283.08047
253.69422
229.79064
209.97353
193.28583
179.04076
166.74468
156.02017
146.5903
138.22866
130.77085
124.07044
118.02664
112.53794
107.54218
102.96408
98.766537
94.889855
91.314259
87.989212
84.907658
82.024193
79.341652
76.817098
74.461499
72.232544
70.148221
68.165532
66.308787
64.53332
62.869338
61.26975
59.770426
58.321246
56.963639
55.643962
54.409194
53.201736
52.074175
50.964571
49.931208
48.907445
47.957382
47.009343
46.133385
45.252482
44.442801
43.621679
42.871562
42.103873
41.407522
40.687752
40.040128
39.363461
38.760166
38.122371
37.559546
36.956896
36.431148
35.860338
35.368666
34.826763
34.366512
33.850899
33.419706
32.928039
32.5238
32.053978
31.674809
31.224939
30.869155
30.437525
30.103613
29.688673
29.375268
28.97561
28.681483
28.295825
28.019864
27.647034
27.388232
27.027158
26.784601
26.434299
26.207158
25.866721
25.654241
25.322836
25.124328
24.801182
24.616019
24.300418
24.128026
23.819309
23.659162
23.356711
23.208331
22.844321
367.88995
320.04458
283.08042
253.69414
229.79051
209.97335
193.28558
179.04043
166.74427
156.01968
146.58972
138.22798
130.77007
124.06956
118.02565
112.53685
107.54098
102.96278
98.76514
94.888363
91.312681
87.987557
84.905944
82.022434
79.339874
76.815324
74.459762
72.230878
70.146666
68.164126
66.307574
64.532337
62.868622
61.269329
59.770317
58.321459
56.964168
55.644791
54.410295
53.20308
52.075719
50.966277
49.933034
48.909358
47.959349
47.011339
46.135386
45.254473
44.44477
43.623616
42.873461
42.10573
41.409336
40.689522
40.041855
39.365144
38.761808
38.123973
37.561113
36.958424
36.432642
35.861799
35.370099
34.828165
34.367887
33.852245
33.421029
32.929338
32.525077
32.055231
31.676043
31.226152
30.870351
30.438701
30.104772
29.689814
29.376395
28.97672
28.682579
28.296904
28.020931
27.648086
27.389273
27.028183
26.785616
26.435299
26.208148
25.867698
25.655208
25.323789
25.125273
24.802114
24.616943
24.301329
24.12893
23.8202
23.660047
23.357584
23.209197
22.845172
367.88994
320.04455
283.08038
253.69405
229.79037
209.97315
193.28531
179.04008
166.74384
156.01915
146.58909
138.22725
130.76923
124.0686
118.02458
112.53565
107.53966
102.96134
98.76358
94.886687
91.310898
87.985673
84.903976
82.020398
79.337796
76.81323
74.45769
72.228863
70.144758
68.162371
66.306024
64.531041
62.867626
61.26867
59.770021
58.321538
56.964615
55.645594
54.411415
53.20448
52.077346
50.968089
49.934978
48.911394
47.961437
47.013452
46.137498
45.256568
44.446832
43.625638
42.875438
42.107658
41.411215
40.691349
40.043635
39.366876
38.763497
38.125618
37.562718
36.95999
36.434175
35.863296
35.371566
34.8296
34.369297
33.853627
33.422388
32.930671
32.52639
32.056523
31.677317
31.227404
30.871588
30.439919
30.105977
29.691001
29.377569
28.977877
28.683726
28.298036
28.022052
27.649192
27.390369
27.029266
26.78669
26.436359
26.2092
25.868737
25.65624
25.324809
25.126285
24.803115
24.617937
24.302313
24.129907
23.821166
23.661007
23.358534
23.210142
22.846104
367.88993
320.04453
283.08032
253.69396
229.79022
209.97294
193.28503
179.03971
166.74337
156.01858
146.58841
138.22646
130.76831
124.06757
118.02341
112.53434
107.53822
102.95975
98.761852
94.884819
91.308897
87.983546
84.901737
82.018061
79.335389
76.810779
74.455237
72.22645
70.142441
68.160206
66.304076
64.529371
62.866294
61.267725
59.769497
58.321457
56.96497
55.646366
54.412559
53.205951
52.079079
50.970028
49.937059
48.913573
47.963665
47.015698
46.139734
45.258774
44.448997
43.627751
42.877497
42.109657
41.413157
40.693234
40.045466
39.368653
38.765224
38.127297
37.564354
36.961582
36.435729
35.864811
35.373048
34.831048
34.370714
33.855013
33.423748
32.932003
32.527699
32.057805
31.678578
31.228642
30.872807
30.441116
30.107157
29.69216
29.378713
28.979003
28.684836
28.299128
28.023131
27.650254
27.391419
27.030299
26.787711
26.437365
26.210196
25.869717
25.65721
25.325763
25.127231
24.804046
24.61886
24.303222
24.130808
23.822054
23.661888
23.359401
23.211003
22.846951
367.88993
320.0445
283.08027
253.69386
229.79007
209.97271
193.28472
179.03932
166.74288
156.01798
146.5877
138.22561
130.76734
124.06645
118.02214
112.53293
107.53665
102.95801
98.759956
94.882756
91.306673
87.981163
84.899209
82.0154
79.332623
76.807934
74.452359
72.223586
70.139655
68.157565
66.301661
64.527257
62.86456
61.266437
59.768703
58.321186
56.965217
55.64711
54.413743
53.207517
52.080945
50.972125
49.939311
48.915921
47.966058
47.018097
46.142109
45.261106
44.451274
43.629964
42.879643
42.111735
41.41517
40.695183
40.047356
39.370485
38.767006
38.129028
37.566042
36.963226
36.437335
35.866379
35.374584
34.832551
34.372191
33.856461
33.425172
32.933401
32.529076
32.059159
31.679915
31.229958
30.874107
30.442397
30.108424
29.69341
29.37995
28.980223
28.686045
28.300321
28.024314
27.651422
27.392577
27.031444
26.788847
26.438487
26.211309
25.870818
25.658303
25.326844
25.128305
24.805108
24.619915
24.304265
24.131846
23.82308
23.662909
23.360411
23.212007
22.847941
367.88992
320.04447
283.08021
253.69376
229.78991
209.97247
193.2844
179.0389
166.74236
156.01734
146.58694
138.22472
130.7663
124.06526
118.0208
112.53141
107.53496
102.95614
98.757893
94.880498
91.304221
87.978517
84.896379
82.012396
79.329469
76.804658
74.449008
72.220211
70.136331
68.154371
66.298695
64.524618
62.862346
61.264741
59.767589
58.320697
56.965348
55.647837
54.414994
53.209217
52.082989
50.974427
49.941778
48.918484
47.968651
47.020682
46.144652
45.263588
44.453681
43.632289
42.881887
42.113897
41.417253
40.697188
40.049292
39.372353
38.768813
38.130775
37.567736
36.964868
36.438933
35.867932
35.376097
34.834024
34.37363
33.857864
33.426545
32.934742
32.530391
32.060445
31.681178
31.231194
30.875322
30.443588
30.109596
29.69456
29.381082
28.981334
28.687141
28.301397
28.025375
27.652464
27.393605
27.032454
26.789845
26.439468
26.212278
25.87177
25.659245
25.32777
25.129221
24.806009
24.620807
24.305142
24.132715
23.823935
23.663756
23.361244
23.212834
22.848752
367.8899
320.04444
283.08015
253.69365
229.78974
209.97224
193.28408
179.03847
166.74182
156.01668
146.58615
138.22379
130.76522
124.06401
118.01938
112.52981
107.53315
102.95413
98.755669
94.87805
91.301545
87.975607
84.893241
82.009035
79.325905
76.800917
74.445137
72.216265
70.132395
68.150537
66.295084
64.521354
62.859563
61.262558
59.766098
58.31996
56.965364
55.648574
54.41636
53.211113
52.085284
50.977009
49.944528
48.92132
47.971502
47.023499
46.147404
45.266254
44.456255
43.634765
42.88427
42.116187
41.419461
40.699316
40.05135
39.374343
38.770745
38.132651
37.569564
36.966648
36.440672
35.86963
35.377762
34.835654
34.375231
33.859434
33.42809
32.936261
32.531887
32.061918
31.682631
31.232627
30.876738
30.444985
30.110977
29.695923
29.382432
28.982667
28.68846
28.3027
28.026667
27.653741
27.394871
27.033705
26.791085
26.440694
26.213495
25.872973
25.660439
25.328951
25.130394
24.807169
24.62196
24.306283
24.133848
23.825056
23.664871
23.362347
23.21393
22.849833
367.88989
320.04441
283.08008
253.69353
229.78956
209.97199
193.28374
179.03803
166.74127
156.016
146.58533
138.22282
130.76409
124.06271
118.01789
112.52812
107.53126
102.952
98.7533
94.875426
91.298656
87.972441
84.889796
82.005308
79.321914
76.79668
74.440701
72.211685
70.127765
68.145966
66.290718
64.517352
62.856099
61.259796
59.76417
58.318952
56.96528
55.649375
54.417922
53.213308
52.087937
50.979978
49.947668
48.924529
47.974693
47.026621
46.150423
45.269149
44.459019
43.637396
42.886775
42.118569
41.421731
40.70148
40.053419
39.376323
38.772647
38.134477
37.571324
36.968346
36.442315
35.871218
35.379303
34.837148
34.376684
33.860847
33.429468
32.9376
32.533197
32.063195
31.683882
31.233847
30.877935
30.446154
30.112126
29.697046
29.383535
28.983746
28.689522
28.30374
28.027691
27.654743
27.395859
27.034672
26.792039
26.441629
26.214417
25.873877
25.661332
25.329827
25.131259
24.808018
24.622799
24.307106
24.134664
23.825856
23.665663
23.363124
23.214701
22.850588
367.88988
320.04438
283.08001
253.69342
229.78939
209.97173
193.28339
179.03758
166.7407
156.01531
146.58449
138.22183
130.76293
124.06137
118.01635
112.52637
107.52928
102.94978
98.750808
94.872645
91.295573
87.969033
84.886056
82.001221
79.317491
76.791926
74.43566
72.20641
70.122358
68.140549
66.28547
64.512475
62.851824
61.256353
59.76174
58.317664
56.965144
55.650337
54.41982
53.215963
52.091124
50.983506
49.951356
48.928254
47.978365
47.030187
46.153857
45.272439
44.462167
43.640404
42.889657
42.121331
41.424389
40.704037
40.055892
39.378714
38.774968
38.13673
37.573519
36.970483
36.444405
35.873259
35.381302
34.839104
34.378606
33.862731
33.431321
32.939421
32.534991
32.06496
31.685623
31.235562
30.879629
30.447824
30.113776
29.698674
29.385145
28.985334
28.691094
28.305292
28.029227
27.656259
27.39736
27.036155
26.793509
26.443079
26.215855
25.875296
25.66274
25.331218
25.132639
24.809381
24.624153
24.308444
24.135991
23.827167
23.666965
23.36441
23.215978
22.851844
367.88988
320.04434
283.07996
253.69331
229.78921
209.97148
193.28305
179.03714
166.74014
156.01461
146.58366
138.22084
130.76177
124.06002
118.01479
112.52458
107.52725
102.94748
98.748219
94.869738
91.292324
87.965414
84.882045
81.996794
79.31264
76.786648
74.429986
72.200384
70.116085
68.134165
66.279193
64.506561
62.846586
61.252107
59.758754
58.316122
56.965065
55.651643
54.422285
53.219351
52.095129
50.987875
49.95585
48.932709