/*--------------------------------*- C++ -*----------------------------------*\
| =========                 |                                                 |
| \\      /  F ield         | OpenFOAM: The Open Source CFD Toolbox           |
|  \\    /   O peration     | Version:  2406                                  |
|   \\  /    A nd           | Website:  www.openfoam.com                      |
|    \\/     M anipulation  |                                                 |
\*---------------------------------------------------------------------------*/
FoamFile
{
    version     2.0;
    format      ascii;
    arch        "LSB;label=32;scalar=64";
    class       volScalarField;
    location    "800";
    object      p;
}
// * * * * * * * * * * * * * * * * * * * * * * * * * * * * * * * * * * * * * //

dimensions      [0 2 -2 0 0 0 0];

internalField   nonuniform List<scalar> 
16045
(
1.2770571
1.2730992
1.2655099
1.2547954
1.2412104
1.2247279
1.2052616
1.182781
1.1572866
1.1287707
1.0972162
1.0626107
1.0249543
0.98426179
0.94056457
0.89391481
0.84438987
0.79209637
0.73717376
0.679798
0.6201842
0.55858899
0.4953117
0.43069445
0.36512069
0.29901245
0.23282546
0.1670431
0.10216807
0.038712956
-0.022810948
-0.081905312
-0.13809729
-0.19095159
-0.24008199
-0.28516145
-0.32593045
-0.36220266
-0.39386831
-0.42089444
-0.44332262
-0.46126386
-0.47489167
-0.48443312
-0.49015909
-0.49237373
-0.4914041
-0.48759012
-0.48127554
-0.47279978
-0.46249131
-0.45066209
-0.43760358
-0.42358379
-0.40884564
-0.39360613
-0.37805639
-0.36236249
-0.34666647
-0.33108808
-0.31572641
-0.30066196
-0.28595847
-0.27166498
-0.25781759
-0.24444136
-0.23155182
-0.21915657
-0.20725655
-0.19584733
-0.18492005
-0.17446241
-0.16445945
-0.15489422
-0.14574834
-0.13700248
-0.12863679
-0.12063115
-0.11296555
-0.10562015
-0.098575591
-0.091812999
-0.085314184
-0.079061586
-0.073038454
-0.067228719
-0.061617168
-0.056189275
-0.050931368
-0.04583047
-0.040874424
-0.036051936
-0.031352185
-0.026766764
-0.022283809
-0.017908065
-0.013599866
-0.0094749208
-0.0052100427
-0.0021128127
1.280242
1.2772907
1.2706156
1.2605874
1.2475994
1.2316865
1.2127653
1.1908036
1.1658044
1.1377622
1.1066591
1.0724798
1.0352198
0.99488832
0.95150988
0.90512871
0.85581335
0.80366088
0.74880094
0.69139946
0.6316619
0.56983599
0.50621338
0.44113025
0.37496638
0.30814288
0.24111791
0.17438064
0.10844351
0.043832529
-0.018923851
-0.079306978
-0.1368209
-0.19100548
-0.24144867
-0.28779784
-0.32976903
-0.3671539
-0.39982371
-0.42773056
-0.45090532
-0.469453
-0.48354548
-0.49341251
-0.49933123
-0.50161521
-0.50060318
-0.49664842
-0.49010886
-0.48133842
-0.47067975
-0.4584583
-0.44497795
-0.4305179
-0.41533084
-0.3996421
-0.38364978
-0.36752549
-0.35141568
-0.33544328
-0.31970967
-0.30429672
-0.28926893
-0.27467543
-0.26055204
-0.24692309
-0.23380322
-0.22119887
-0.20910975
-0.19753006
-0.18644964
-0.17585481
-0.16572931
-0.15605491
-0.14681203
-0.13798022
-0.12953855
-0.12146596
-0.11374149
-0.10634453
-0.099254923
-0.09245317
-0.085920402
-0.079638573
-0.073590355
-0.067759303
-0.062129707
-0.056686741
-0.051416293
-0.046305125
-0.041340653
-0.036511303
-0.031805753
-0.027215198
-0.02272683
-0.018344864
-0.014025588
-0.009884781
-0.0055580829
-0.002352788
1.2861377
1.283497
1.2770761
1.2671736
1.2542817
1.2384796
1.2196744
1.1978226
1.1729248
1.1449738
1.113947
1.0798229
1.0425901
1.0022501
0.95881936
0.91233355
0.86285232
0.81046406
0.75529004
0.69748863
0.63725899
0.57484426
0.51053373
0.44466392
0.37761812
0.30982446
0.24175193
0.1739044
0.10681268
0.041024529
-0.022907135
-0.084437316
-0.143043
-0.19823734
-0.24958344
-0.29670679
-0.33930574
-0.3771593
-0.41013181
-0.43817431
-0.4613224
-0.47969103
-0.49346651
-0.50289645
-0.50827824
-0.50994683
-0.50826253
-0.50359937
-0.49633453
-0.48683905
-0.47547029
-0.4625658
-0.44843895
-0.43337593
-0.41763414
-0.40144159
-0.38499733
-0.3684725
-0.35201193
-0.33573613
-0.31974341
-0.3041122
-0.28890331
-0.27416218
-0.25992091
-0.24620031
-0.23301165
-0.22035825
-0.20823695
-0.19663938
-0.18555301
-0.17496215
-0.16484869
-0.15519283
-0.14597363
-0.13716946
-0.12875841
-0.12071855
-0.11302826
-0.10566632
-0.098612122
-0.091845755
-0.085348083
-0.079100775
-0.073086358
-0.06728819
-0.061690494
-0.056278294
-0.05103744
-0.045954552
-0.041016979
-0.036212945
-0.031530936
-0.02696172
-0.022491924
-0.01812449
-0.013814349
-0.0096734898
-0.0053525067
-0.0021896173
1.2943792
1.2918739
1.2857305
1.2761605
1.263629
1.248215
1.2298152
1.2083729
1.1838808
1.1563248
1.1256748
1.0918996
1.0549776
1.0148995
0.97166957
0.92531072
0.87586931
0.82342011
0.76807111
0.70996806
0.64929887
0.5862974
0.52124645
0.45447946
0.3863809
0.3173848
0.24797127
0.17866087
0.11000651
0.042583124
-0.023024781
-0.086237345
-0.14649474
-0.20327303
-0.25609966
-0.30456768
-0.34834782
-0.38719759
-0.42096693
-0.44959995
-0.47313281
-0.49168793
-0.50546513
-0.5147303
-0.51980257
-0.52104066
-0.51882937
-0.51356682
-0.50565284
-0.49547913
-0.48342113
-0.46983178
-0.45503697
-0.4393327
-0.42298366
-0.40622291
-0.38925258
-0.37224526
-0.35534591
-0.33867412
-0.32232655
-0.30637939
-0.29089086
-0.27590357
-0.26144676
-0.24753835
-0.2341868
-0.22139279
-0.20915067
-0.19744975
-0.1862754
-0.17560999
-0.16543372
-0.15572525
-0.14646227
-0.13762195
-0.12918133
-0.12111757
-0.11340825
-0.10603146
-0.098966004
-0.092191469
-0.085688268
-0.079437713
-0.073421988
-0.067624187
-0.062028257
-0.05661901
-0.051382047
-0.046303776
-0.041371266
-0.036572462
-0.031895427
-0.027330463
-0.022863315
-0.018496333
-0.014181421
-0.01003216
-0.0056671419
-0.0024182488
1.3048543
1.3024486
1.2965277
1.287225
1.2749574
1.2598049
1.2416686
1.220486
1.1962415
1.168914
1.138465
1.1048534
1.0680459
1.0280199
0.98476565
0.93829092
0.88862639
0.83583109
0.77999768
0.72125777
0.65978712
0.59581024
0.52960425
0.46150174
0.39189186
0.32121962
0.24998306
0.17872773
0.10803849
0.038528642
-0.029173666
-0.094441194
-0.15666494
-0.21527234
-0.26974517
-0.3196362
-0.3645834
-0.40432083
-0.43868537
-0.46761886
-0.49116571
-0.50946609
-0.52274554
-0.53130177
-0.5354897
-0.53570572
-0.53237232
-0.52592364
-0.51679264
-0.50540032
-0.49214708
-0.47740621
-0.46151949
-0.44479456
-0.42750386
-0.40988485
-0.3921412
-0.37444473
-0.3569378
-0.33973604
-0.32293116
-0.30659384
-0.29077643
-0.27551559
-0.26083469
-0.24674598
-0.23325255
-0.22035011
-0.20802841
-0.19627259
-0.18506427
-0.17438251
-0.16420452
-0.1545064
-0.14526357
-0.13645127
-0.12804487
-0.12002012
-0.11235339
-0.10502178
-0.098003264
-0.091276735
-0.08482206
-0.07862008
-0.072652625
-0.066902478
-0.061353352
-0.055989839
-0.050797368
-0.045762153
-0.040871082
-0.03611185
-0.031472238
-0.026942103
-0.022506698
-0.018167285
-0.013875694
-0.0097422081
-0.0054082853
-0.0022247776
1.3174783
1.3151496
1.3094084
1.3003509
1.2883614
1.2735159
1.2557152
1.2348875
1.2110041
1.184032
1.1539202
1.1206136
1.0840629
1.0442285
1.0010822
0.95461246
0.9048298
0.85177303
0.79551503
0.73616894
0.67389422
0.60890238
0.54146203
0.4719028
0.40061766
0.32806319
0.25475746
0.18127494
0.10823817
0.036306186
-0.033840351
-0.10151682
-0.16605447
-0.22682151
-0.28324413
-0.33482624
-0.38116641
-0.42197092
-0.45706189
-0.48637986
-0.50998079
-0.52802796
-0.54077945
-0.54857241
-0.55180544
-0.55092017
-0.5463836
-0.53867159
-0.52825473
-0.51558651
-0.50109425
-0.48517246
-0.46817868
-0.45043134
-0.43220927
-0.4137526
-0.39526467
-0.37691456
-0.35884015
-0.34115134
-0.32393336
-0.30724996
-0.29114651
-0.27565277
-0.26078555
-0.24655091
-0.23294628
-0.21996216
-0.20758367
-0.19579182
-0.18456463
-0.17387798
-0.1637064
-0.15402362
-0.14480312
-0.13601849
-0.12764371
-0.11965341
-0.11202301
-0.1047289
-0.097748447
-0.091060084
-0.084643317
-0.078478726
-0.072547931
-0.066833566
-0.061319223
-0.055989405
-0.050829445
-0.045825469
-0.040964237
-0.03623329
-0.031620172
-0.027114458
-0.022700909
-0.018380554
-0.014103655
-0.0099820832
-0.0056348976
-0.0023992557
1.3321815
1.329921
1.3243446
1.3155283
1.3038254
1.289298
1.2718401
1.251369
1.2278427
1.2012143
1.1714188
1.1383852
1.1020465
1.0623433
1.0192264
0.97266163
0.92263617
0.86916491
0.8122973
0.75212437
0.68878603
0.62247807
0.55345866
0.48205377
0.40866096
0.33375098
0.2578666
0.18161814
0.10567512
0.030753767
-0.042399269
-0.1130271
-0.1803856
-0.24376815
-0.30253088
-0.35611623
-0.4040737
-0.44607565
-0.48192711
-0.51156903
-0.53507434
-0.55263809
-0.564562
-0.57123535
-0.57311386
-0.57069779
-0.56451121
-0.55508318
-0.54293177
-0.5285511
-0.51240184
-0.49490457
-0.47643593
-0.45732715
-0.43786436
-0.41829042
-0.39880767
-0.37958131
-0.36074326
-0.34239597
-0.32461631
-0.30745926
-0.29096128
-0.27514343
-0.26001415
-0.24557169
-0.23180622
-0.21870165
-0.20623713
-0.19438836
-0.18312862
-0.17242969
-0.16226247
-0.1525976
-0.14340589
-0.13465864
-0.12632792
-0.11838673
-0.11080916
-0.10357049
-0.096647163
-0.09001689
-0.083658585
-0.07755235
-0.071679437
-0.066022182
-0.060563946
-0.055289036
-0.050182623
-0.045230675
-0.040419801
-0.035737359
-0.031170691
-0.026709088
-0.022337068
-0.018055006
-0.01381371
-0.0097224866
-0.0054196282
-0.002247682
1.3489026
1.3467083
1.3412934
1.33272
1.3213153
1.307127
1.2900422
1.2699688
1.2468513
1.2206279
1.1912171
1.1585297
1.1224779
1.0829793
1.0399598
0.99335815
0.94313349
0.88927186
0.83179402
0.77076369
0.70629607
0.63856651
0.5678188
0.49437232
0.41862786
0.34107075
0.2622713
0.18288093
0.10362402
0.025284706
-0.051311465
-0.12532047
-0.19590687
-0.26227326
-0.32369062
-0.37952717
-0.42927368
-0.4725629
-0.50918163
-0.5390744
-0.56233851
-0.57921142
-0.5900515
-0.5953145
-0.59552769
-0.59126371
-0.58311598
-0.57167696
-0.55752022
-0.54118628
-0.52317269
-0.50392767
-0.48384701
-0.46327351
-0.44249844
-0.4217645
-0.40126973
-0.38117201
-0.36159377
-0.34262668
-0.32433613
-0.30676538
-0.28993948
-0.27386851
-0.25855066
-0.24397473
-0.23012233
-0.21696967
-0.20448914
-0.19265045
-0.18142175
-0.17077035
-0.16066337
-0.15106826
-0.14195315
-0.13328714
-0.12504048
-0.11718472
-0.1096928
-0.10253906
-0.09569927
-0.089150615
-0.082871631
-0.076842166
-0.071043302
-0.065457284
-0.060067424
-0.054858022
-0.049814256
-0.044922104
-0.040168174
-0.035539808
-0.031024298
-0.026610858
-0.022283878
-0.018043692
-0.013840758
-0.0097848339
-0.005504778
-0.0023272389
1.3675824
1.3654559
1.360207
1.3518874
1.3408015
1.3269829
1.31031
1.2906793
1.2680202
1.2422533
1.2132784
1.180985
1.1452615
1.1059991
1.0630947
1.016456
0.96600912
0.91170597
0.85353316
0.79152129
0.72575516
0.6563843
0.58363338
0.50781178
0.42932161
0.34866324
0.26643755
0.1833433
0.10016943
0.017780986
-0.062901173
-0.14092702
-0.21534917
-0.28525838
-0.34982051
-0.40831204
-0.46015137
-0.50492309
-0.54239278
-0.57251129
-0.59540827
-0.61137585
-0.62084441
-0.62435313
-0.62251818
-0.61600098
-0.60547898
-0.59162054
-0.57506454
-0.5564052
-0.53618194
-0.5148735
-0.49289584
-0.47060309
-0.44829038
-0.42619838
-0.40451855
-0.38339897
-0.36295008
-0.34325032
-0.32435128
-0.30628253
-0.28905578
-0.27266855
-0.25710737
-0.2423504
-0.22836965
-0.2151328
-0.20260472
-0.1907486
-0.17952688
-0.16890203
-0.15883703
-0.14929585
-0.14024369
-0.13164722
-0.12347471
-0.11569611
-0.10828304
-0.10120883
-0.094448444
-0.087978453
-0.081776939
-0.075823418
-0.070098743
-0.064585004
-0.05926542
-0.054124238
-0.049146605
-0.044318485
-0.039626473
-0.035057886
-0.030599985
-0.026241918
-0.021968073
-0.017778541
-0.013624402
-0.0096137611
-0.0053852078
-0.0022565681
1.38816
1.3861054
1.3810329
1.3729858
1.3622467
1.3488355
1.332621
1.313488
1.2913501
1.2661095
1.2376454
1.2058244
1.1705087
1.1315597
1.0888417
1.0422266
0.99160243
0.93688107
0.87800835
0.81497482
0.74782767
0.67668355
0.60174153
0.52329553
0.44174538
0.35760524
0.27150836
0.18420646
0.096562662
0.0095370236
-0.075836324
-0.15847981
-0.23731034
-0.31128223
-0.37943273
-0.44092615
-0.49509296
-0.54146025
-0.57977017
-0.60998481
-0.63227761
-0.64701199
-0.65471042
-0.65601726
-0.65165916
-0.64240633
-0.62903769
-0.61231151
-0.59294256
-0.57158601
-0.54882723
-0.52517708
-0.50107126
-0.47687308
-0.45287835
-0.42932179
-0.40638403
-0.38419899
-0.36286087
-0.34243082
-0.32294299
-0.30440983
-0.2868268
-0.27017627
-0.25443086
-0.23955621
-0.22551316
-0.21225956
-0.19975168
-0.18794528
-0.17679648
-0.16626233
-0.15630127
-0.14687349
-0.13794106
-0.12946811
-0.12142083
-0.11376754
-0.10647858
-0.099526278
-0.092884888
-0.086530443
-0.080440668
-0.074594853
-0.068973735
-0.063559367
-0.058334996
-0.053284929
-0.04839441
-0.043649506
-0.039036921
-0.034544075
-0.03015833
-0.025868903
-0.02166032
-0.017532624
-0.013437545
-0.009481913
-0.0053095503
-0.0022229281
1.4105711
1.4085944
1.4037135
1.3959639
1.385607
1.372649
1.3569494
1.3383806
1.3168395
1.2922086
1.2643449
1.2330894
1.1982749
1.1597299
1.1172812
1.0707602
1.0200105
0.96489722
0.9053178
0.84121433
0.77258767
0.69951275
0.62215458
0.54078431
0.45579392
0.36770857
0.27719473
0.18506239
0.092259416
-0.00014327937
-0.090976845
-0.17901016
-0.26299503
-0.34171863
-0.41405978
-0.47904436
-0.53589469
-0.58406802
-0.62327967
-0.65350876
-0.67498636
-0.68816753
-0.69369124
-0.69233321
-0.68495611
-0.67246222
-0.65575151
-0.6356876
-0.61307228
-0.58862864
-0.56299147
-0.53670424
-0.51022077
-0.48391042
-0.45806558
-0.43291032
-0.40860974
-0.3852789
-0.36299142
-0.34178729
-0.32167972
-0.30266111
-0.28470816
-0.26778603
-0.25185183
-0.23685733
-0.22275124
-0.20948077
-0.1969931
-0.18523617
-0.1741595
-0.16371462
-0.15385538
-0.14453819
-0.13572203
-0.12736858
-0.11944207
-0.11190929
-0.10473942
-0.097903948
-0.091376493
-0.085132691
-0.079150016
-0.073407638
-0.067886273
-0.062568028
-0.057436251
-0.052475392
-0.047670853
-0.043008869
-0.038476313
-0.034060763
-0.029749736
-0.025532588
-0.021394024
-0.017334195
-0.013305265
-0.0094135067
-0.0053009148
-0.0022474928
1.4347457
1.4328548
1.4281847
1.4207636
1.4108313
1.3983808
1.3832622
1.3653354
1.3444799
1.3205575
1.2934016
1.2628255
1.2286304
1.1906083
1.1485447
1.1022249
1.0514423
0.99600751
0.93576112
0.87058721
0.80042986
0.72531137
0.64535202
0.56079026
0.47200221
0.37951887
0.28403908
0.18643545
0.08775127
-0.010813897
-0.10793189
-0.2021871
-0.29213065
-0.37634471
-0.45351276
-0.52248956
-0.58236419
-0.63250906
-0.67260936
-0.70266962
-0.72299733
-0.73416595
-0.73696266
-0.73232776
-0.72129199
-0.70491809
-0.68425045
-0.66027579
-0.63389504
-0.60590621
-0.57699634
-0.54774089
-0.51860867
-0.48997032
-0.46210902
-0.43523214
-0.40948301
-0.38495201
-0.36168676
-0.33970122
-0.31898344
-0.29950212
-0.28121213
-0.26405887
-0.24798177
-0.23291709
-0.21879996
-0.20556592
-0.19315212
-0.18149805
-0.17054611
-0.16024189
-0.15053436
-0.1413759
-0.1327223
-0.12453262
-0.11676908
-0.1093969
-0.10238409
-0.095701268
-0.089321461
-0.083219909
-0.077373879
-0.071762461
-0.066366391
-0.06116788
-0.056150435
-0.051298702
-0.0465983
-0.042035692
-0.03759798
-0.033272965
-0.029048392
-0.024913798
-0.020854228
-0.01686966
-0.012913813
-0.0090895867
-0.0050598927
-0.0020912015
1.4606071
1.4588112
1.4543746
1.4473184
1.4378602
1.4259796
1.4115183
1.3943232
1.3742563
1.3511578
1.3248364
1.2950761
1.2616439
1.2242917
1.1827596
1.1367812
1.0860925
1.0304416
0.96960205
0.90338864
0.83167601
0.75442036
0.67168335
0.58365754
0.49069173
0.39331459
0.29225372
0.18844717
0.083044422
-0.022606862
-0.12699045
-0.22846909
-0.32534949
-0.41596151
-0.49874648
-0.57234645
-0.63568498
-0.68803061
-0.7290344
-0.75873747
-0.77754828
-0.78619311
-0.78564744
-0.77705767
-0.76166157
-0.74071596
-0.71543644
-0.68695206
-0.65627494
-0.62428386
-0.59171887
-0.55918446
-0.52715883
-0.49600679
-0.46599439
-0.43730431
-0.41005044
-0.3842914
-0.36004259
-0.3372865
-0.31598141
-0.29606857
-0.27747795
-0.26013276
-0.24395294
-0.22885777
-0.21476783
-0.20160628
-0.18929982
-0.17777924
-0.1669797
-0.15684091
-0.14730706
-0.1383267
-0.12985262
-0.12184155
-0.11425394
-0.1070537
-0.10020795
-0.093686686
-0.087462606
-0.081510784
-0.075808501
-0.070334971
-0.065071144
-0.059999506
-0.05510388
-0.050369248
-0.045781576
-0.041327667
-0.036994952
-0.032771543
-0.028645485
-0.02460661
-0.02064024
-0.016746788
-0.012879978
-0.0091437049
-0.005184659
-0.0022330219
1.4880705
1.4863799
1.4822029
1.4755533
1.4666251
1.4553853
1.4416673
1.4253059
1.4061451
1.3840035
1.3586637
1.3298795
1.2973812
1.2608778
1.2200596
1.174603
1.1241792
1.0684649
1.0071555
0.93998369
0.86673964
0.78729712
0.70164194
0.60990359
0.51238801
0.40960905
0.30231601
0.19151296
0.078465536
-0.035309152
-0.14807351
-0.25792396
-0.36286876
-0.4609261
-0.55023571
-0.62917345
-0.69645619
-0.75122439
-0.79309065
-0.82214839
-0.83893977
-0.84438927
-0.83971266
-0.826315
-0.80568951
-0.77932775
-0.74864765
-0.71494172
-0.67934549
-0.64282304
-0.606166
-0.57000237
-0.53481153
-0.50094271
-0.4686348
-0.43803583
-0.40922113
-0.38220938
-0.35697663
-0.3334679
-0.31160675
-0.29130295
-0.27245838
-0.25497157
-0.23874104
-0.22366773
-0.20965658
-0.19661761
-0.18446658
-0.17312519
-0.16252118
-0.15258825
-0.14326573
-0.13449837
-0.12623597
-0.11843298
-0.11104815
-0.10404419
-0.097387332
-0.091047097
-0.084995889
-0.079208725
-0.073662954
-0.068337999
-0.063215093
-0.05827706
-0.053508101
-0.048893595
-0.044419904
-0.040074219
-0.035844346
-0.031718751
-0.02768584
-0.023735717
-0.019854241
-0.016041409
-0.01225359
-0.008588449
-0.0047343863
-0.0019130732
1.5170413
1.5154679
1.5115795
1.5053826
1.4970469
1.4865265
1.473648
1.4582345
1.4401124
1.4190784
1.3948891
1.3672667
1.3359033
1.3004625
1.2605803
1.2158705
1.1659322
1.1103604
1.0487606
0.98076792
0.9060709
0.82444084
0.73576616
0.64009106
0.53765737
0.42894609
0.31471601
0.19603373
0.074289465
-0.048807649
-0.17126039
-0.29084504
-0.40520461
-0.51197056
-0.60890476
-0.69404773
-0.76585626
-0.82331163
-0.86598336
-0.8940388
-0.90819795
-0.90964322
-0.89989793
-0.88069258
-0.85383554
-0.82110185
-0.78414704
-0.74444942
-0.70327873
-0.66168595
-0.62050932
-0.5803907
-0.54179846
-0.50505302
-0.47035282
-0.43779889
-0.4074168
-0.37917562
-0.35300382
-0.32880222
-0.30645428
-0.28583405
-0.2668121
-0.24925996
-0.23305305
-0.2180728
-0.20420786
-0.19135473
-0.1794181
-0.16831067
-0.15795296
-0.14827292
-0.13920539
-0.13069167
-0.12267894
-0.11511977
-0.10797157
-0.10119617
-0.094759298
-0.088630258
-0.082781464
-0.077188129
-0.071827904
-0.066680629
-0.061728009
-0.056953374
-0.052341446
-0.047878118
-0.043550251
-0.03934551
-0.035252145
-0.031259037
-0.027354977
-0.023530475
-0.019771669
-0.016079417
-0.012409161
-0.0088624242
-0.0050871399
-0.0022506076
1.5474149
1.5459715
1.5424033
1.5367098
1.5290347
1.5193202
1.5073868
1.4930475
1.4761115
1.4563542
1.4335064
1.4072583
1.377263
1.3431359
1.3044557
1.260768
1.211592
1.156431
1.0947871
1.0261812
0.95017979
0.86642791
0.77468996
0.67489665
0.56719745
0.45201521
0.33009899
0.20256873
0.070944257
-0.062849997
-0.19651344
-0.32743746
-0.45281671
-0.56980042
-0.67567388
-0.76805212
-0.84506167
-0.90548457
-0.9488424
-0.9754066
-0.98613495
-0.98254729
-0.96656226
-0.94032097
-0.90602125
-0.8657795
-0.82152869
-0.77495583
-0.72747319
-0.68021622
-0.63405968
-0.58964475
-0.5474119
-0.50763535
-0.47045663
-0.43591472
-0.40397244
-0.37453819
-0.34748385
-0.32265883
-0.29990084
-0.2790439
-0.25992415
-0.24238373
-0.22627339
-0.211454
-0.19779723
-0.18518574
-0.17351299
-0.16268272
-0.15260836
-0.14321233
-0.13442524
-0.12618522
-0.11843716
-0.111132
-0.10422615
-0.097680826
-0.091461557
-0.085537661
-0.079881825
-0.07446967
-0.069279385
-0.064291396
-0.059488068
-0.05485339
-0.050372742
-0.046032657
-0.041820601
-0.037724807
-0.033734056
-0.029837715
-0.026025074
-0.022286984
-0.018610365
-0.014995181
-0.011401298
-0.0079192768
-0.0042752325
-0.0016420802
1.5790751
1.5777754
1.5745614
1.5694257
1.5624848
1.5536694
1.542796
1.5296686
1.5140807
1.4957875
1.4744947
1.4498611
1.4215003
1.3889785
1.351814
1.3094791
1.2614061
1.2069958
1.1456327
1.076705
0.99963351
0.91390917
0.81913976
0.71510671
0.60183012
0.47963951
0.34924512
0.21180254
0.06896074
-0.077118528
-0.22378218
-0.36795906
-0.5062918
-0.63532515
-0.75173945
-0.85260522
-0.93562608
-0.99933227
-1.0431928
-1.0676261
-1.0739093
-1.0640064
-1.0403464
-1.0055901
-0.96241698
-0.91335326
-0.86065328
-0.80623419
-0.7516545
-0.6981252
-0.64654058
-0.59751968
-0.55145202
-0.50854318
-0.46885702
-0.43235248
-0.39891433
-0.36837791
-0.34054868
-0.3152171
-0.29216955
-0.27119616
-0.2520959
-0.2346799
-0.21877335
-0.20421616
-0.19086309
-0.17858325
-0.16725932
-0.15678663
-0.1470721
-0.1380332
-0.12959692
-0.12169872
-0.11428169
-0.10729563
-0.10069629
-0.094444661
-0.088506354
-0.082850987
-0.077451745
-0.072284852
-0.067329199
-0.062565931
-0.057978177
-0.053550664
-0.049269483
-0.045121836
-0.041095811
-0.037180209
-0.033364332
-0.029638029
-0.025991021
-0.022414671
-0.018896078
-0.015436835
-0.011993909
-0.0086674477
-0.0050950808
-0.0023649709
1.6118933
1.6107519
1.6079281
1.6034077
1.5972791
1.5894623
1.5797719
1.5680048
1.5539408
1.5373165
1.5178146
1.4950638
1.4686387
1.438056
1.4027717
1.3621813
1.3156231
1.2623853
1.2017196
1.1328614
1.0550599
0.96761873
0.86994998
0.76164111
0.64253488
0.51281956
0.3731242
0.22461002
0.069045181
-0.091152534
-0.25292357
-0.41264168
-0.56626785
-0.709585
-0.83849962
-0.94937947
-1.0393812
-1.1067138
-1.15079
-1.1722361
-1.1727611
-1.1549169
-1.1217946
-1.0767154
-1.0229539
-0.96352657
-0.90105591
-0.83770651
-0.77517902
-0.71474175
-0.6572821
-0.60336685
-0.55330416
-0.5072024
-0.46502266
-0.42662247
-0.39179112
-0.3602769
-0.33180803
-0.30610784
-0.2829055
-0.26194293
-0.24297918
-0.2257926
-0.21018177
-0.19596534
-0.18298115
-0.17108507
-0.16014958
-0.15006223
-0.14072421
-0.13204882
-0.12396018
-0.1163919
-0.10928601
-0.10259185
-0.096265202
-0.090267444
-0.084564824
-0.079127805
-0.073930535
-0.068950283
-0.064167021
-0.05956297
-0.055122311
-0.050830781
-0.046675408
-0.042644263
-0.03872623
-0.034910831
-0.031188034
-0.027548289
-0.02398195
-0.020480757
-0.017032961
-0.013638325
-0.01026147
-0.0069831525
-0.0035886374
-0.0012049181
1.6457281
1.6447601
1.642364
1.638519
1.6332844
1.6265707
1.6181932
1.6079442
1.5955923
1.5808585
1.5634046
1.5428323
1.518679
1.490413
1.4574277
1.4190392
1.3744861
1.3229347
1.263489
1.1952104
1.117147
1.028378
0.92807285
0.81556988
0.69047283
0.55276466
0.40293278
0.24209608
0.072117609
-0.1043181
-0.28368829
-0.46170173
-0.63347596
-0.79382816
-0.93766725
-1.0604453
-1.1586044
-1.2299398
-1.2738062
-1.2911248
-1.2841935
-1.2563468
-1.2115403
-1.1539354
-1.0875426
-1.0159615
-0.94222909
-0.86876651
-0.79740025
-0.72942428
-0.66567997
-0.60664049
-0.5524929
-0.50321296
-0.45862898
-0.41847294
-0.38241973
-0.35011644
-0.32120379
-0.29533107
-0.27216569
-0.25139888
-0.23274839
-0.2159595
-0.20080449
-0.1870813
-0.17461169
-0.16323921
-0.15282699
-0.1432557
-0.13442154
-0.12623436
-0.11861602
-0.11149882
-0.10482418
-0.09854138
-0.092606548
-0.086981726
-0.081634018
-0.076534923
-0.071659671
-0.066986694
-0.062497106
-0.058174262
-0.054003388
-0.049971228
-0.046065714
-0.042275729
-0.038590883
-0.035001355
-0.031497694
-0.028070904
-0.024711799
-0.021412813
-0.018162154
-0.01496267
-0.01177224
-0.0086919722
-0.0053266483
-0.0026639961
1.6804245
1.6796454
1.6777153
1.6746075
1.670351
1.6648486
1.657919
1.6493535
1.6389128
1.6263053
1.6111766
1.5931045
1.5715934
1.5460659
1.5158545
1.480195
1.4382232
1.388975
1.331393
1.2643427
1.1866405
1.0970982
0.99458839
0.87813284
0.74701815
0.60093692
0.44015052
0.26566254
0.079383911
-0.1157377
-0.31566029
-0.51529985
-0.70872772
-0.88953021
-1.0513194
-1.1883422
-1.296097
-1.3718401
-1.4148712
-1.426533
-1.4099311
-1.36945
-1.3101783
-1.2373506
-1.1558862
-1.070072
-0.98339986
-0.89854196
-0.8174156
-0.74129053
-0.67090668
-0.60658847
-0.548351
-0.49599333
-0.44917486
-0.40747332
-0.37042704
-0.3375653
-0.3084295
-0.28258684
-0.25963795
-0.23922046
-0.22100977
-0.2047181
-0.1900923
-0.17691106
-0.16498181
-0.15413765
-0.14423437
-0.13514766
-0.1267706
-0.11901135
-0.11179111
-0.10504234
-0.098707165
-0.092736005
-0.0870864
-0.081721975
-0.076611527
-0.071728315
-0.067049275
-0.062554535
-0.058226819
-0.054051022
-0.050013747
-0.046103023
-0.042307936
-0.038618405
-0.035024964
-0.031518626
-0.028090714
-0.024732925
-0.021436872
-0.018195362
-0.014998341
-0.011845134
-0.008706926
-0.0056509865
-0.0025546373
-0.000510026
1.7158138
1.7152391
1.7138137
1.7115052
1.708312
1.7041308
1.6987877
1.6920764
1.6837537
1.6735206
1.6610111
1.645785
1.627319
1.6049951
1.5780888
1.5457583
1.5070353
1.4608202
1.4058822
1.3408703
1.2643366
1.1747796
1.070712
0.95075852
0.81379099
0.65910051
0.48660592
0.29708734
0.092423238
-0.12420464
-0.34818695
-0.57350079
-0.79291878
-0.99844917
-1.1820036
-1.3362259
-1.4553536
-1.5359334
-1.5772216
-1.5811674
-1.5519939
-1.4955032
-1.4182767
-1.326923
-1.2274816
-1.1250378
-1.0235655
-0.92595566
-0.83415356
-0.74932958
-0.67204577
-0.60240641
-0.54019248
-0.48497599
-0.43620892
-0.39328651
-0.35559044
-0.32251846
-0.29350391
-0.26802676
-0.24561824
-0.22586135
-0.20838905
-0.19288103
-0.17905961
-0.1666852
-0.15555192
-0.14548344
-0.13632913
-0.12796057
-0.12026852
-0.11316015
-0.10655664
-0.10039118
-0.094607108
-0.089156436
-0.083998497
-0.079098849
-0.074428293
-0.069962056
-0.06567902
-0.061561121
-0.057592809
-0.053760537
-0.050052318
-0.046457411
-0.042965996
-0.039568941
-0.036257615
-0.033023762
-0.029859363
-0.026756777
-0.023708149
-0.020707286
-0.017743711
-0.014822324
-0.011900879
-0.0090851452
-0.0059125392
-0.0032431399
1.7517131
1.7513583
1.7504757
1.7490279
1.7469824
1.7442325
1.7406151
1.735931
1.7299381
1.7223357
1.7127528
1.7007387
1.6857497
1.6671351
1.6441207
1.6157926
1.5810818
1.5387515
1.4873895
1.42541
1.3510695
1.2625045
1.1577971
1.0350809
0.89269239
0.72937789
0.54455574
0.33862609
0.11330444
-0.1280637
-0.38027411
-0.63620435
-0.88701503
-1.1226801
-1.3328608
-1.5080445
-1.6407625
-1.7266174
-1.7648506
-1.7582907
-1.7127202
-1.6358674
-1.5362895
-1.4223588
-1.3014887
-1.1796746
-1.0613695
-0.94961185
-0.84627273
-0.75231468
-0.66801722
-0.59316907
-0.52723552
-0.46949687
-0.4191495
-0.37537143
-0.33736369
-0.30437724
-0.27572911
-0.25080901
-0.22907915
-0.21007059
-0.19337789
-0.17865301
-0.16559863
-0.15396182
-0.14352794
-0.13411541
-0.12557091
-0.11776522
-0.11058961
-0.10395273
-0.097777831
-0.092000534
-0.086566861
-0.081431636
-0.076556999
-0.071911287
-0.067468018
-0.063204964
-0.059103466
-0.055147687
-0.051324159
-0.047621188
-0.044028456
-0.040536669
-0.037137321
-0.033822425
-0.030584369
-0.027415835
-0.024309709
-0.021259178
-0.018257418
-0.015298576
-0.012374805
-0.0094847132
-0.0066083698
-0.0037950501
-0.0010576762
0.00052760753
1.7879265
1.7878061
1.7875028
1.786975
1.7861593
1.7849479
1.7831932
1.7807082
1.7772577
1.7725461
1.7662057
1.7577841
1.7467278
1.7323641
1.7138799
1.6902996
1.6604617
1.6229965
1.5763076
1.5185616
1.4476916
1.3614227
1.2573315
1.1329514
0.98593868
0.81431305
0.61678108
0.39313996
0.14473955
-0.12504792
-0.41043746
-0.70304172
-0.99202456
-1.2647234
-1.5077931
-1.708784
-1.8578885
-1.9494393
-1.9827225
-1.961855
-1.8948115
-1.7919543
-1.664469
-1.5229968
-1.3766233
-1.2323463
-1.0950389
-0.96775049
-0.85212353
-0.7487681
-0.65755336
-0.57784307
-0.50869937
-0.44904666
-0.39778125
-0.35383314
-0.31620125
-0.28397547
-0.25634786
-0.23261302
-0.21216166
-0.19447195
-0.17910029
-0.16567189
-0.15387133
-0.14343398
-0.13413836
-0.12579955
-0.11826353
-0.11140221
-0.10510918
-0.099296304
-0.093890471
-0.088831228
-0.084068542
-0.07956115
-0.075274979
-0.071181958
-0.06725891
-0.063486728
-0.059849525
-0.056333977
-0.052928848
-0.049624354
-0.046411802
-0.043283323
-0.040231629
-0.037249748
-0.034330968
-0.031468807
-0.028656942
-0.025889406
-0.023160033
-0.020464467
-0.017793866
-0.015156211
-0.012507809
-0.0099636104
-0.0069506369
-0.0041696834
1.8242441
1.8243721
1.8246823
1.8251299
1.8256212
1.8260504
1.8262898
1.8261706
1.825471
1.8239084
1.8211284
1.8166879
1.8100364
1.8004934
1.7872226
1.7692021
1.7451927
1.7137036
1.6729602
1.6208771
1.5550425
1.472726
1.3709211
1.2464411
1.0960912
0.91693797
0.70669826
0.46425458
0.190284
-0.11205555
-0.43649009
-0.77321788
-1.1089418
-1.4275659
-1.7116876
-1.9448049
-2.1138593
-2.2114577
-2.2370492
-2.1966581
-2.1013634
-1.9651459
-1.8027061
-1.6276115
-1.4509647
-1.2808129
-1.1222942
-0.97822957
-0.84979081
-0.73702221
-0.63919905
-0.55510714
-0.48328963
-0.42223869
-0.37050574
-0.32674877
-0.28975459
-0.25845274
-0.23191808
-0.20936127
-0.19011354
-0.17361189
-0.15938538
-0.14704201
-0.13625627
-0.12675843
-0.11832545
-0.11077337
-0.10395074
-0.097733137
-0.092018571
-0.086723544
-0.081779792
-0.077131706
-0.072733998
-0.068549975
-0.064549902
-0.060709788
-0.057010196
-0.053435579
-0.049973184
-0.046612486
-0.043344762
-0.040162403
-0.037058621
-0.034027179
-0.031062207
-0.028158009
-0.025309036
-0.022509899
-0.019755363
-0.017040462
-0.014360381
-0.011711025
-0.0090873447
-0.0064869664
-0.0039013032
-0.0013570408
0.00095015408
0.00193771
1.8604446
1.8608332
1.8617875
1.8632606
1.8651291
1.8672923
1.869648
1.8720512
1.8743011
1.8761375
1.8772297
1.8771578
1.8753897
1.8712553
1.863915
1.8523231
1.8351853
1.8109114
1.7775658
1.7328187
1.6739058
1.5976066
1.5002583
1.3778282
1.2260757
1.0408391
0.81848623
0.55655647
0.25459898
-0.084843579
-0.45523588
-0.8452702
-1.238644
-1.6147728
-1.9507198
-2.2243111
-2.4179027
-2.5217358
-2.5356524
-2.4685317
-2.3358795
-2.1566693
-1.9503236
-1.7341766
-1.5217142
-1.3219783
-1.1400758
-0.9782502
-0.83690529
-0.71528249
-0.6118622
-0.52467955
-0.45162646
-0.39067376
-0.339969
-0.29785591
-0.26287986
-0.23379324
-0.20954693
-0.18926696
-0.17222807
-0.15783162
-0.14558664
-0.135092
-0.12602032
-0.11810474
-0.11112825
-0.10491472
-0.099321593
-0.094233617
-0.089557785
-0.085219169
-0.081157606
-0.077324842
-0.073682379
-0.070199694
-0.066852586
-0.063621951
-0.0604928
-0.057453365
-0.054494273
-0.05160786
-0.048787762
-0.0460284
-0.043324671
-0.040671813
-0.038065171
-0.035500175
-0.03297235
-0.030477363
-0.028011027
-0.025569588
-0.023149166
-0.020747869
-0.01835889
-0.015994281
-0.013607694
-0.011327146
-0.0084286206