/*--------------------------------*- C++ -*----------------------------------*\
| =========                 |                                                 |
| \\      /  F ield         | OpenFOAM: The Open Source CFD Toolbox           |
|  \\    /   O peration     | Version:  2406                                  |
|   \\  /    A nd           | Website:  www.openfoam.com                      |
|    \\/     M anipulation  |                                                 |
\*---------------------------------------------------------------------------*/
FoamFile
{
    version     2.0;
    format      ascii;
    arch        "LSB;label=32;scalar=64";
    class       surfaceScalarField;
    location    "800";
    object      phi;
}
// * * * * * * * * * * * * * * * * * * * * * * * * * * * * * * * * * * * * * //

dimensions      [0 3 -1 0 0 0 0];

oriented        oriented;

internalField   nonuniform List<scalar> 
39940
(
0.75000231
-1.8722003e-06
0.75000724
-6.3135993e-06
0.75001478
-1.1361679e-05
0.75002483
-1.6844812e-05
0.75003734
-2.2713088e-05
0.75005233
-2.8953387e-05
0.75007041
-3.6152853e-05
0.75009039
-4.2495409e-05
0.75011289
-4.9765884e-05
0.75013791
-5.7349391e-05
0.75016547
-6.5229777e-05
0.75019556
-7.3387296e-05
0.75022879
-8.2397866e-05
0.75026392
-9.0431038e-05
0.75030154
-9.9250971e-05
0.75034157
-0.00010821379
0.75038455
-0.00011786822
0.75042916
-0.0001263533
0.75047648
-0.00013600139
0.75052515
-0.00014433397
0.75057616
-0.00015366727
0.75062808
-0.00016150687
0.75068185
-0.00017015617
0.75073596
-0.00017711024
0.75079128
-0.00018466662
0.75084624
-0.00019031866
0.75090166
-0.00019636859
0.75095592
-0.00020032001
0.75100981
-0.000204493
0.7510617
-0.00020641515
0.75111238
-0.0002084378
0.75116023
-0.00020812516
0.7512055
-0.00020726971
0.75124844
-0.0002058846
0.75128755
-0.00020220368
0.75132319
-0.00019808947
0.75135519
-0.00019302211
0.75138342
-0.000187101
0.75140782
-0.00018044083
0.75142779
-0.00017256581
0.7514446
-0.00016541125
0.75145777
-0.00015730798
0.75146686
-0.00014838725
0.75147327
-0.00014057799
0.75147604
-0.00013159149
0.75147664
-0.00012393635
0.75147413
-0.00011529815
0.75147001
-0.00010815715
0.75146334
-0.00010016931
0.75145562
-9.3785398e-05
0.75144589
-8.6633093e-05
0.75143562
-8.1136853e-05
0.75142383
-7.4900769e-05
0.75141194
-7.0328644e-05
0.75139893
-6.5007177e-05
0.75138618
-6.1325866e-05
0.75137324
-5.7461318e-05
0.75135962
-5.3390167e-05
0.75134665
-5.0889705e-05
0.75133381
-4.8129526e-05
0.75132058
-4.5081776e-05
0.75130822
-4.3522161e-05
0.75129617
-4.1620381e-05
0.75128448
-3.9951832e-05
0.75127316
-3.8491839e-05
0.75126224
-3.7217673e-05
0.75125112
-3.5506873e-05
0.75124102
-3.5143111e-05
0.75123132
-3.4305318e-05
0.75122203
-3.3578559e-05
0.75121314
-3.2948051e-05
0.75120463
-3.2400936e-05
0.7511965
-3.1925364e-05
0.75118873
-3.1511152e-05
0.7511813
-3.1148958e-05
0.75117419
-3.0830814e-05
0.7511674
-3.0549461e-05
0.75116091
-3.0298717e-05
0.7511547
-3.0073008e-05
0.75114874
-2.9867546e-05
0.75114304
-2.9678098e-05
0.75113757
-2.9500956e-05
0.75113231
-2.9332946e-05
0.75112726
-2.9171182e-05
0.75112239
-2.9013324e-05
0.7511177
-2.885713e-05
0.75111317
-2.8700929e-05
0.75110879
-2.8543002e-05
0.75110454
-2.8382239e-05
0.75110042
-2.8217394e-05
0.75109642
-2.8047884e-05
0.75109251
-2.7872961e-05
0.75108871
-2.769268e-05
0.75108499
-2.750691e-05
0.75108135
-2.7317001e-05
0.75107779
-2.7123243e-05
0.7510743
-2.6932901e-05
0.75107088
-2.6741205e-05
0.75106757
-2.6612366e-05
-2.6477411e-05
0.75000164
-3.509174e-06
0.750006
-1.0667173e-05
0.75001354
-1.8897087e-05
0.75002303
-2.6326862e-05
0.75003504
-3.4717784e-05
0.75004957
-4.3469698e-05
0.75006601
-5.258154e-05
0.75008556
-6.204478e-05
0.75010825
-7.244789e-05
0.75013289
-8.1976916e-05
0.75016008
-9.2413586e-05
0.75019044
-0.00010373303
0.75022215
-0.00011410206
0.75025761
-0.00012587973
0.75029498
-0.00013661389
0.75033541
-0.00014864321
0.75037765
-0.0001600935
0.75042278
-0.00017147915
0.75046889
-0.00018210279
0.75051822
-0.00019365661
0.75056878
-0.00020422027
0.75062155
-0.00021426583
0.75067566
-0.00022425874
0.75073081
-0.00023225827
0.75078608
-0.00023992636
0.75084229
-0.00024652578
0.75089786
-0.00025192857
0.75095356
-0.00025601929
0.75100777
-0.00025869984
0.75106126
-0.00025989503
0.75111238
-0.00025955616
0.75116192
-0.00025766488
0.75120829
-0.00025363443
0.75125172
-0.00024931577
0.75129191
-0.00024238622
0.75132858
-0.00023476152
0.75136154
-0.00022598108
0.75139064
-0.00021620847
0.75141582
-0.00020562426
0.75143707
-0.0001938185
0.75145445
-0.0001827892
0.75146746
-0.00017032417
0.75147748
-0.00015840934
0.7514835
-0.00014661244
0.75148699
-0.00013508391
0.751487
-0.0001239532
0.75148502
-0.00011332703
0.75148015
-0.0001032891
0.75147387
-9.3900473e-05
0.75146528
-8.5201105e-05
0.75145585
-7.7211942e-05
0.75144464
-6.9936809e-05
0.7514331
-6.3365546e-05
0.75142024
-5.7476327e-05
0.75140746
-5.2238321e-05
0.75139374
-4.7613971e-05
0.75137983
-4.3561123e-05
0.75136646
-4.0034996e-05
0.75135316
-3.7590719e-05
0.7513394
-3.4379081e-05
0.75132707
-3.2759738e-05
0.75131383
-3.0285394e-05
0.75130152
-2.9319911e-05
0.75128959
-2.8022265e-05
0.75127745
-2.6357853e-05
0.75126633
-2.6097907e-05
0.75125623
-2.5410805e-05
0.75124596
-2.4871714e-05
0.75123612
-2.4457858e-05
0.75122669
-2.4148835e-05
0.75121708
-2.3325969e-05
0.75120846
-2.3776484e-05
0.75120023
-2.3683981e-05
0.75119237
-2.3637596e-05
0.75118486
-2.3627284e-05
0.75117769
-2.3644279e-05
0.75117085
-2.3681194e-05
0.7511643
-2.3731647e-05
0.75115804
-2.3790267e-05
0.75115205
-2.3852484e-05
0.75114631
-2.3914422e-05
0.75114081
-2.3972862e-05
0.75113553
-2.402502e-05
0.75113045
-2.4068683e-05
0.75112557
-2.4101875e-05
0.75112086
-2.4123136e-05
0.75111631
-2.4131106e-05
0.75111192
-2.4124923e-05
0.75110767
-2.4103746e-05
0.75110354
-2.4067251e-05
0.75109953
-2.4015116e-05
0.75109562
-2.3947606e-05
0.75109181
-2.3865091e-05
0.75108809
-2.3768693e-05
0.75108444
-2.3660107e-05
0.75108087
-2.3542008e-05
0.75107737
-2.3419852e-05
0.75107393
-2.3297448e-05
0.7510705
-2.3184986e-05
-2.3028171e-05
0.75000203
-4.9346739e-06
0.75000623
-1.4864826e-05
0.75001245
-2.5108106e-05
0.75002183
-3.5697328e-05
0.75003374
-4.6621856e-05
0.75004817
-5.7891277e-05
0.75006572
-7.0118618e-05
0.75008519
-8.1506479e-05
0.7501066
-9.384936e-05
0.75013176
-0.00010713502
0.7501589
-0.00011954325
0.75018862
-0.00013344505
0.75022153
-0.00014699962
0.75025641
-0.00016075438
0.75029445
-0.0001746434
0.7503344
-0.0001885859
0.7503768
-0.00020248662
0.75042156
-0.00021623437
0.75046917
-0.00022970269
0.75051887
-0.00024335083
0.75057048
-0.00025582378
0.75062318
-0.00026695525
0.7506773
-0.00027837351
0.75073315
-0.00028809905
0.75078918
-0.00029595421
0.75084623
-0.00030356941
0.75090329
-0.00030898352
0.75095994
-0.00031265638
0.75101511
-0.00031387171
0.75106957
-0.00031434785
0.75112165
-0.00031163454
0.75117152
-0.0003075287
0.75121936
-0.00030146812
0.75126358
-0.00029353668
0.75130445
-0.00028326124
0.75134231
-0.00027261346
0.75137572
-0.00025939306
0.75140454
-0.00024503385
0.7514299
-0.00023098967
0.7514512
-0.00021511747
0.75146789
-0.00019948291
0.7514813
-0.00018373858
0.75149101
-0.00016812232
0.75149663
-0.00015224696
0.75149965
-0.00013810277
0.75149913
-0.00012344037
0.75149598
-0.00011018638
0.75149111
-9.8431611e-05
0.75148364
-8.64325e-05
0.75147445
-7.6024855e-05
0.75146385
-6.6614483e-05
0.75145269
-5.8788666e-05
0.75144003
-5.0712632e-05
0.75142729
-4.4746263e-05
0.75141347
-3.8430136e-05
0.75139995
-3.4107272e-05
0.75138629
-2.9908656e-05
0.75137262
-2.6368258e-05
0.75135843
-2.3419078e-05
0.75134504
-2.099608e-05
0.75133131
-1.9037025e-05
0.75131911
-1.8084573e-05
0.75130606
-1.6281312e-05
0.75129402
-1.5981893e-05
0.75128239
-1.4737113e-05
0.7512712
-1.4910804e-05
0.75125985
-1.4062882e-05
0.75124955
-1.4565775e-05
0.75123968
-1.4588616e-05
0.75123025
-1.4708324e-05
0.75122183
-1.4903984e-05
0.75121322
-1.5157735e-05
0.7512044
-1.4853294e-05
0.75119656
-1.5780661e-05
0.75118908
-1.6125978e-05
0.75118193
-1.6481117e-05
0.75117511
-1.683845e-05
0.75116859
-1.7191708e-05
0.75116236
-1.753571e-05
0.7511564
-1.7866238e-05
0.75115069
-1.8179874e-05
0.75114522
-1.847386e-05
0.75113997
-1.8746027e-05
0.75113492
-1.8994638e-05
0.75113006
-1.9218413e-05
0.75112538
-1.9416346e-05
0.75112087
-1.9587812e-05
0.7511165
-1.9732368e-05
0.75111227
-1.9849925e-05
0.75110816
-1.994055e-05
0.75110417
-2.0004702e-05
0.75110029
-2.0043039e-05
0.7510965
-2.0056759e-05
0.75109279
-2.0047383e-05
0.75108916
-2.0017541e-05
0.7510856
-1.9969889e-05
0.7510821
-1.9911589e-05
0.75107865
-1.9843344e-05
0.75107528
-1.9810551e-05
-1.9794138e-05
0.75000135
-6.281645e-06
0.75000537
-1.8876684e-05
0.75001195
-3.1684271e-05
0.75002105
-4.4788106e-05
0.75003325
-5.8814473e-05
0.75004735
-7.1984309e-05
0.75006336
-8.6119097e-05
0.75008309
-0.00010123076
0.75010477
-0.00011551883
0.75012902
-0.00013137322
0.75015646
-0.00014697284
0.7501859
-0.00016288458
0.75021797
-0.00017906115
0.75025267
-0.0001954392
0.75028997
-0.00021193906
0.75033045
-0.00022906275
0.75037287
-0.00024489225
0.75041833
-0.00026169211
0.75046614
-0.00027750493
0.75051556
-0.00029275712
0.750567
-0.00030725745
0.75062145
-0.00032140152
0.75067626
-0.00033317321
0.75073292
-0.00034475395
0.7507905
-0.00035352327
0.75084861
-0.00036167259
0.75090623
-0.00036660454
0.75096413
-0.00037055156
0.75102124
-0.0003709731
0.75107647
-0.00036957491
0.75113055
-0.00036570767
0.7511818
-0.00035877553
0.75123098
-0.00035064352
0.75127647
-0.0003390281
0.75131912
-0.00032590855
0.75135681
-0.00031031072
0.75139113
-0.00029370837
0.7514219
-0.00027580619
0.75144724
-0.00025633119
0.75146894
-0.00023682372
0.75148647
-0.00021701821
0.75149936
-0.00019663434
0.75150841
-0.00017717135
0.75151444
-0.00015829123
0.75151655
-0.00014021885
0.75151564
-0.00012253567
0.75151263
-0.00010718472
0.75150605
-9.1858341e-05
0.75149863
-7.9019264e-05
0.75148888
-6.6284715e-05
0.75147831
-5.6050984e-05
0.75146599
-4.6480304e-05
0.75145339
-3.8119319e-05
0.75143953
-3.0898098e-05
0.75142583
-2.4735964e-05
0.75141125
-1.9545562e-05
0.75139657
-1.5236375e-05
0.75138251
-1.2318658e-05
0.75136798
-8.9002781e-06
0.75135428
-7.300503e-06
0.75134087
-5.6358788e-06
0.75132721
-4.4331304e-06
0.75131455
-3.6241862e-06
0.75130231
-3.7484048e-06
0.75129052
-2.9474817e-06
0.75127858
-2.9755365e-06
0.75126831
-3.7895044e-06
0.75125789
-4.1497406e-06
0.75124733
-4.0238458e-06
0.75123781
-5.1869058e-06
0.75122873
-5.8122083e-06
0.75122006
-6.4806655e-06
0.7512124
-7.1754832e-06
0.75120391
-7.2816726e-06
0.75119639
-8.5906085e-06
0.75118922
-9.2899249e-06
0.75118238
-9.9729553e-06
0.75117584
-1.0633557e-05
0.7511696
-1.126688e-05
0.75116363
-1.1869129e-05
0.75115791
-1.2437386e-05
0.75115243
-1.2969471e-05
0.75114718
-1.3463782e-05
0.75114213
-1.3919238e-05
0.75113728
-1.433512e-05
0.7511326
-1.4711098e-05
0.75112808
-1.5047081e-05
0.75112372
-1.5343296e-05
0.75111949
-1.5600152e-05
0.75111539
-1.5818372e-05
0.75111141
-1.5998876e-05
0.75110753
-1.6142969e-05
0.75110374
-1.6252256e-05
0.75110003
-1.6328922e-05
0.75109641
-1.6375693e-05
0.75109284
-1.6396403e-05
0.75108933
-1.6395408e-05
0.75108587
-1.6379371e-05
0.75108241
-1.634076e-05
-1.6256214e-05
0.75000129
-7.5722465e-06
0.75000516
-2.2737966e-05
0.75001216
-3.867169e-05
0.75002105
-5.3672091e-05
0.75003183
-6.9589905e-05
0.75004631
-8.6457249e-05
0.7500627
-0.00010250254
0.75008163
-0.00012014528
0.75010311
-0.00013699135
0.75012718
-0.00015543391
0.75015386
-0.00017365217
0.7501838
-0.00019281068
0.7502158
-0.00021105548
0.75025108
-0.00023071524
0.75028845
-0.00024929607
0.75032848
-0.00026908366
0.75037173
-0.00028813822
0.75041755
-0.0003074983
0.75046523
-0.0003251767
0.75051584
-0.00034336513
0.75056863
-0.00036003355
0.75062277
-0.00037553514
0.75067921
-0.00038961054
0.75073706
-0.00040259338
0.75079596
-0.00041241738
0.75085552
-0.00042122914
0.75091531
-0.0004263901
0.75097426
-0.00042949638
0.75103308
-0.00042978232
0.75109064
-0.00042713411
0.75114643
-0.00042149798
0.75119995
-0.0004122866
0.75125009
-0.00040078709
0.75129702
-0.00038595571
0.75134034
-0.00036922296
0.7513803
-0.00035028024
0.75141547
-0.00032887297
0.75144565
-0.00030598975
0.75147196
-0.00028264541
0.75149379
-0.00025866208
0.75151063
-0.00023385573
0.75152381
-0.00020982392
0.75153236
-0.00018572541
0.75153774
-0.000163681
0.75153847
-0.00014094964
0.75153727
-0.00012134949
0.75153271
-0.00010263072
0.75152634
-8.54966e-05
0.75151671
-6.9398331e-05
0.75150657
-5.6148741e-05
0.75149442
-4.3916208e-05
0.75148117
-3.3243848e-05
0.7514671
-2.4050206e-05
0.75145242
-1.6236893e-05
0.75143737
-9.6943208e-06
0.75142272
-4.9079523e-06
0.75140804
-5.5785038e-07
0.75139284
2.870995e-06
0.75137843
5.4906696e-06
0.75136372
7.4072849e-06
0.75134995
8.1185499e-06
0.7513366
8.9173448e-06
0.75132368
9.2847655e-06
0.75131063
9.2944999e-06
0.75129867
9.0118801e-06
0.7512872
8.4942878e-06
0.75127622
7.1906586e-06
0.75126512
6.9471508e-06
0.7512557
5.3965198e-06
0.75124555
4.9740754e-06
0.75123644
3.3020572e-06
0.75122777
2.2053585e-06
0.7512195
1.1010446e-06
0.75121223
3.8569436e-09
0.75120413
-4.7329828e-07
0.75119699
-2.1238283e-06
0.75119017
-3.1373283e-06
0.75118367
-4.1089909e-06
0.75117746
-5.0344349e-06
0.75117153
-5.9104366e-06
0.75116586
-6.7347173e-06
0.75116042
-7.5057543e-06
0.75115521
-8.2226463e-06
0.7511502
-8.8849705e-06
0.75114539
-9.4927188e-06
0.75114075
-1.0046187e-05
0.75113628
-1.0545963e-05
0.75113195
-1.0992845e-05
0.75112776
-1.1387881e-05
0.7511237
-1.1732311e-05
0.75111975
-1.2027645e-05
0.7511159
-1.2275635e-05
0.75111214
-1.2478405e-05
0.75110846
-1.2638438e-05
0.75110486
-1.2758867e-05
0.75110131
-1.2843085e-05
0.75109782
-1.2896545e-05
0.75109437
-1.2921833e-05
0.75109098
-1.2946885e-05
-1.2975308e-05
0.75000185
-8.8202665e-06
0.7500056
-2.6479471e-05
0.75001122
-4.4287796e-05
0.7500199
-6.2346996e-05
0.75003165
-8.1323508e-05
0.75004466
-9.9462031e-05
0.75006136
-0.00011919983
0.75007999
-0.00013876413
0.75010178
-0.00015876796
0.75012556
-0.0001792087
0.75015198
-0.00020006682
0.75018109
-0.00022190556
0.75021351
-0.00024346679
0.75024807
-0.00026527032
0.75028599
-0.00028721037
0.75032607
-0.00030915574
0.75036949
-0.00033154706
0.75041499
-0.00035299469
0.75046431
-0.00037448283
0.75051491
-0.00039396439
0.75056846
-0.00041357106
0.75062414
-0.00043120946
0.75068171
-0.00044717055
0.75074086
-0.00046173819
0.75080124
-0.00047279264
0.75086244
-0.00048242924
0.75092402
-0.00048796121
0.75098547
-0.00049094146
0.75104626
-0.00049057055
0.75110584
-0.00048671095
0.75116365
-0.00047929919
0.75121912
-0.00046775352
0.75127112
-0.0004527825
0.75132035
-0.00043518505
0.75136517
-0.00041404406
0.75140581
-0.00039092533
0.75144199
-0.0003650567
0.75147352
-0.00033751879
0.75150029
-0.00030942274
0.75152171
-0.00028008548
0.75153907
-0.0002512176
0.75155134
-0.00022209548
0.75155936
-0.00019375236
0.75156344
-0.00016776581
0.75156452
-0.00014203906
0.75156178
-0.00011861488
0.7515556
-9.6460588e-05
0.75154757
-7.7483339e-05
0.75153749
-5.9322034e-05
0.7515257
-4.4373239e-05
0.75151256
-3.0781312e-05
0.75149837
-1.9060874e-05
0.7514834
-9.0992882e-06
0.75146792
-7.6582653e-07
0.75145274
5.4801464e-06
0.75143683
1.0987829e-05
0.75142096
1.5303e-05
0.75140585
1.79678e-05
0.75139041
2.0922198e-05
0.75137592
2.1889636e-05
0.75136124
2.2791402e-05
0.75134761
2.2532547e-05
0.75133388
2.3012612e-05
0.75132126
2.1912844e-05
0.75130915
2.1111604e-05
0.75129757
2.0073293e-05
0.75128591
1.8854294e-05
0.75127595
1.6901779e-05
0.75126529
1.6059601e-05
0.75125632
1.3957881e-05
0.7512466
1.3029055e-05
0.75123792
1.089244e-05
0.75122967
9.3699996e-06
0.75122181
7.875941e-06
0.75121493
6.4222849e-06
0.75120721
5.6193409e-06
0.75120042
3.6713053e-06
0.75119395
2.3863535e-06
0.75118778
1.1672564e-06
0.75118188
1.6535363e-08
0.75117623
-1.0642674e-06
0.75117083
-2.0743914e-06
0.75116565
-3.0136852e-06
0.75116068
-3.8824839e-06
0.7511559
-4.6814858e-06
0.75115129
-5.4116961e-06
0.75114685
-6.0743476e-06
0.75114255
-6.6708906e-06
0.75113839
-7.2029459e-06
0.75113435
-7.6723326e-06
0.75113042
-8.0810504e-06
0.7511266
-8.4313455e-06
0.75112286
-8.7257068e-06
0.7511192
-8.967005e-06
0.75111561
-9.1583673e-06
0.75111208
-9.3038046e-06
0.7511086
-9.4065217e-06
0.75110515
-9.4733684e-06
0.7511017
-9.4927032e-06
-9.4628279e-06
0.75000121
-1.0031245e-05
0.75000485
-3.0111934e-05
0.75001091
-5.0336206e-05
0.75001998
-7.1409186e-05
0.75003027
-9.1608964e-05
0.75004421
-0.00011339301
0.75006003
-0.00013500767
0.75007836
-0.0001570884
0.75009925
-0.00017965549
0.75012337
-0.00020331116
0.75014955
-0.00022623904
0.75017845
-0.0002508022
0.75021013
-0.00027513886
0.75024523
-0.0003003627
0.75028319
-0.00032515648
0.75032401
-0.00034997367
0.75036771
-0.00037523439
0.75041424
-0.00039952286
0.75046296
-0.00042319126
0.75051556
-0.00044655611
0.7505701
-0.00046810369
0.75062699
-0.00048809172
0.75068598
-0.00050615892
0.75074678
-0.0005225293
0.75080962
-0.00053562524
0.75087227
-0.00054507932
0.75093667
-0.00055235206
0.75100107
-0.00055534056
0.75106431
-0.00055380265
0.75112637
-0.00054877136
0.75118604
-0.00053896552
0.7512439
-0.00052560804
0.75129874
-0.00050762632
0.75135002
-0.00048646229
0.75139664
-0.00046065955
0.75143878
-0.00043306625
0.75147612
-0.00040240392
0.75150846
-0.00036985828
0.75153568
-0.00033665078
0.7515572
-0.0003016069
0.75157372
-0.00026774437
0.75158545
-0.00023383107
0.75159327
-0.00020158249
0.75159573
-0.00017023332
0.75159503
-0.00014134101
0.75159098
-0.00011457123
0.75158401
-8.9504878e-05
0.75157457
-6.8047152e-05
0.75156306
-4.782294e-05
0.75154928
-3.0604435e-05
0.7515348
-1.6309731e-05
0.75151934
-3.6154186e-06
0.7515032
7.0265561e-06
0.75148664
1.5784126e-05
0.75146988
2.2234275e-05
0.75145309
2.7760842e-05
0.75143644
3.1941686e-05
0.75142005
3.4348085e-05
0.75140462
3.6344951e-05
0.75138901
3.7481891e-05
0.7513745
3.7295439e-05
0.75135991
3.711186e-05
0.75134648
3.6440418e-05
0.75133361
3.4777243e-05
0.7513207
3.4010235e-05
0.75130897
3.1808053e-05
0.75129778
3.0036339e-05
0.75128714
2.7545724e-05
0.75127702
2.6183497e-05
0.7512668
2.4183171e-05
0.75125826
2.1574794e-05
0.75124898
2.018574e-05
0.75124073
1.7631388e-05
0.7512329
1.5730037e-05
0.75122545
1.3892462e-05
0.75121896
1.2127524e-05
0.75121161
1.1042668e-05
0.75120518
8.8394561e-06
0.75119905
7.3237384e-06
0.7511932
5.8961871e-06
0.75118761
4.557453e-06
0.75118226
3.3074194e-06
0.75117713
2.1453758e-06
0.7511722
1.0701684e-06
0.75116747
8.0299931e-08
0.75116291
-8.2597562e-07
0.75115852
-1.6506046e-06
0.75115427
-2.395684e-06
0.75115015
-3.0634572e-06
0.75114616
-3.6562972e-06
0.75114227
-4.1767289e-06
0.75113848
-4.6274371e-06
0.75113478
-5.0113029e-06
0.75113116
-5.3314454e-06
0.75112761
-5.5912038e-06
0.7511241
-5.7942859e-06
0.75112065
-5.9444516e-06
0.75111723
-6.0461007e-06
0.75111384
-6.109879e-06
-6.1531023e-06
0.75000118
-1.1206479e-05
0.75000531
-3.4238067e-05
0.7500112
-5.6216217e-05
0.75001885
-7.9051556e-05
0.75003008
-0.0001028328
0.75004312
-0.00012642872
0.75005862
-0.00015049611
0.75007662
-0.00017507921
0.75009778
-0.0002008068
0.75012096
-0.00022648801
0.75014744
-0.0002527104
0.75017609
-0.00027943879
0.75020817
-0.00030721103
0.75024255
-0.00033473387
0.75028048
-0.00036308302
0.75032141
-0.00039089594
0.75036476
-0.00041857271
0.75041172
-0.00044647414
0.75046225
-0.00047371765
0.75051508
-0.00049938056
0.75057069
-0.00052370346
0.75062949
-0.00054689063
0.75069066
-0.00056732027
0.75075329
-0.00058515098
0.75081761
-0.00059993776
0.75088378
-0.00061124382
0.75095069
-0.00061925871
0.75101717
-0.00062181807
0.7510838
-0.00062042683
0.75114871
-0.00061367422
0.7512118
-0.00060205781
0.75127239
-0.00058619668
0.75132981
-0.00056503839
0.75138341
-0.00054006973
0.75143266
-0.00050990323
0.75147646
-0.00047687675
0.75151508
-0.00044102322
0.75154827
-0.00040304903
0.75157532
-0.00036370226
0.75159744
-0.00032373932
0.75161359
-0.00028389276
0.75162459
-0.00024484168
0.75163019
-0.00020718803
0.75163199
-0.00017203994
0.75162984
-0.00013919926
0.75162362
-0.00010835921
0.75161442
-8.0311945e-05
0.75160271
-5.6353789e-05
0.75158957
-3.46901e-05
0.75157481
-1.5859681e-05
0.75155824
2.5687895e-07
0.75154079
1.3822107e-05
0.75152337
2.4427329e-05
0.75150566
3.3485936e-05
0.75148787
4.0014933e-05
0.75147018
4.5436672e-05
0.75145275
4.9364104e-05
0.75143568
5.1399866e-05
0.75141908
5.2936272e-05
0.7514036
5.2945575e-05
0.7513881
5.2787772e-05
0.7513738
5.1401436e-05
0.75135952
5.0714071e-05
0.75134647
4.782855e-05
0.75133403
4.6444937e-05
0.75132159
4.423878e-05
0.75131035
4.1277737e-05
0.75129908
3.8820429e-05
0.75128955
3.5711713e-05
0.75127995
3.3793053e-05
0.75127024
3.129235e-05
0.7512622
2.8234385e-05
0.75125341
2.6441577e-05
0.75124563
2.3524769e-05
0.75123825
2.1298123e-05
0.75123123
1.9168668e-05
0.75122515
1.7141925e-05
0.7512182
1.5822347e-05
0.75121214
1.3408862e-05
0.75120636
1.1705006e-05
0.75120084
1.0109416e-05
0.75119555
8.620971e-06
0.75119049
7.2380022e-06
0.75118563
5.9584416e-06
0.75118096
4.7799437e-06
0.75117646
3.6999651e-06
0.75117212
2.7158242e-06
0.75116793
1.8247337e-06
0.75116387
1.0238279e-06
0.75115992
3.1015954e-07
0.75115608
-3.1929812e-07
0.75115234
-8.6767995e-07
0.75114868
-1.3382179e-06
0.7511451
-1.7343327e-06
0.75114157
-2.0594213e-06
0.75113811
-2.3175096e-06
0.75113468
-2.511211e-06
0.75113128
-2.64718e-06
0.75112789
-2.7170852e-06
-2.7388629e-06
0.75000174
-1.2345137e-05
0.75000456
-3.7055288e-05
0.75001088
-6.2520591e-05
0.75001889
-8.7060111e-05
0.75002924
-0.00011317327
0.75004196
-0.00013914072
0.7500571
-0.00016563031
0.75007533
-0.00019329755
0.75009551
-0.00022098056
0.75011833
-0.00024929647
0.75014447
-0.00027884032
0.75017341
-0.00030837938
0.75020466
-0.00033845285
0.7502395
-0.00036956498
0.75027741
-0.00040098272
0.75031846
-0.00043193255
0.75036269
-0.00046279522
0.75041012
-0.00049390558
0.75046076
-0.00052434895
0.75051515
-0.00055376162
0.75057259
-0.00058113396
0.75063232
-0.00060661208
0.75069531
-0.00063030819
0.75076067
-0.0006505069
0.75082802
-0.00066728479
0.75089691
-0.00068012129
0.75096678
-0.00068912691
0.75103702
-0.00069205822
0.75110635
-0.00068975221
0.75117523
-0.00068254699
0.75124228
-0.0006691039
0.75130672
-0.00065063315
0.75136718
-0.00062549924
0.75142295
-0.00059583783
0.75147458
-0.00056154114
0.75152035
-0.00052264719
0.75156044
-0.00048111926
0.7515946
-0.00043720524
0.75162209
-0.00039120212
0.75164356
-0.00034521794
0.75165919
-0.00029952349
0.75166926
-0.00025492095
0.75167418
-0.00021211337
0.75167382
-0.0001716843
0.7516693
-0.0001346882
0.75166117
-0.00010024316
0.75165059
-6.9745652e-05
0.7516369
-4.2673422e-05
0.75162061
-1.8404319e-05
0.75160337
1.3603816e-06
0.75158563
1.7989877e-05
0.75156654
3.2899658e-05
0.75154763
4.3327105e-05
0.75152796
5.3140401e-05
0.75150836
5.9599574e-05
0.75148962
6.4169925e-05
0.75147126
6.7705154e-05
0.75145341
6.9240253e-05
0.75143674
6.9595468e-05
0.7514195
7.0172041e-05
0.75140413
6.8142184e-05
0.75138886
6.6669201e-05
0.75137487
6.4688277e-05
0.75136098
6.1717182e-05
0.75134836
5.9059698e-05
0.75133639
5.6200653e-05
0.75132446
5.3211999e-05
0.75131373
4.9552263e-05
0.75130297
4.6472219e-05
0.75129336
4.3410244e-05
0.75128487
3.9796609e-05
0.75127565
3.7458949e-05
0.7512681
3.4011887e-05
0.75125977
3.1873537e-05
0.75125244
2.8649867e-05
0.75124548
2.6150768e-05
0.75123887
2.3779471e-05
0.75123318
2.1538157e-05
0.75122659
2.0028406e-05
0.75122087
1.7446594e-05
0.75121542
1.5594113e-05
0.7512102
1.3867714e-05
0.75120521
1.2264666e-05
0.75120042
1.0781912e-05
0.75119581
9.4161831e-06
0.75119137
8.1640872e-06
0.75118709
7.0221616e-06
0.75118296
5.986912e-06
0.75117895
5.0548229e-06
0.75117505
4.2223657e-06
0.75117127
3.4859918e-06
0.75116757
2.8421211e-06
0.75116396
2.2871526e-06
0.75116042
1.8173894e-06
0.75115694
1.429271e-06
0.75115351
1.1187033e-06
0.75115012
8.8321619e-07
0.75114676
7.1615876e-07
0.75114342
6.2350866e-07
5.7937708e-07
0.7500011
-1.3445118e-05
0.75000501
-4.0956921e-05
0.75000993
-6.7436732e-05
0.7500183
-9.5414967e-05
0.75002833
-0.00012320293
0.75004069
-0.00015149367
0.75005604
-0.00018096834
0.75007325
-0.00021049444
0.75009299
-0.00024072121
0.75011598
-0.00027227719
0.75014112
-0.00030396471
0.7501697
-0.00033695828
0.75020126
-0.00037000004
0.75023589
-0.00040419395
0.75027312
-0.00043820215
0.75031484
-0.00047364083
0.75035992
-0.00050787369
0.75040784
-0.00054181095
0.7504598
-0.00057630588
0.7505146
-0.00060855139
0.75057335
-0.00063988544
0.75063534
-0.00066859081
0.75070034
-0.00069530596
0.75076868
-0.0007188332
0.75083875
-0.0007373543
0.75091129
-0.00075265791
0.75098452
-0.00076235075
0.75105837
-0.00076589905
0.75113267
-0.00076405418
0.75120541
-0.00075528274
0.75127631
-0.0007400012
0.75134388
-0.00071819943
0.75140844
-0.00069006001
0.75146796
-0.00065536523
0.75152232
-0.00061589828
0.75157029
-0.00057061634
0.751612
-0.00052283463
0.75164716
-0.00047236892
0.75167504
-0.00041909292
0.75169631
-0.00036649381
0.75171119
-0.00031440504
0.75171943
-0.00026316968
0.75172212
-0.00021480918
0.75171982
-0.00016938902
0.75171253
-0.00012741458
0.75170211
-8.9830187e-05
0.75168858
-5.6224223e-05
0.75167194
-2.6049018e-05
0.75165457
-1.0462378e-06
0.75163518
2.0743244e-05
0.75161421
3.8943493e-05
0.75159327
5.3828745e-05
0.75157148
6.5102023e-05
0.75155092
7.3682895e-05
0.75153062
7.9890724e-05
0.75151014
8.4637182e-05
0.75149082
8.701422e-05
0.75147154
8.8497385e-05
0.75145359
8.7532592e-05
0.75143701
8.6748442e-05
0.75142
8.5140951e-05
0.75140437
8.2282629e-05
0.75139013
7.8924574e-05
0.75137604
7.5796409e-05
0.75136329
7.1804433e-05
0.75135125
6.8241711e-05
0.75133987
6.4582301e-05
0.75132854
6.0887652e-05
0.75131841
5.6606342e-05
0.75130885
5.2979817e-05
0.75129922
4.9437907e-05
0.75129129
4.5403083e-05
0.75128262
4.2695958e-05
0.75127559
3.8924918e-05
0.75126776
3.6502546e-05
0.7512609
3.3029951e-05
0.75125439
3.0312811e-05
0.75124821
2.7750694e-05
0.75124232
2.5943637e-05
0.75123671
2.3086526e-05
0.75123136
2.0979415e-05
0.75122624
1.9017769e-05
0.75122134
1.7197675e-05
0.75121664
1.5514986e-05
0.75121212
1.3965445e-05
0.75120777
1.2544755e-05
0.75120357
1.1248633e-05
0.7511995
1.0072833e-05
0.75119557
9.0131687e-06
0.75119174
8.065509e-06
0.75118802
7.2257761e-06
0.75118439
6.4899275e-06
0.75118084
5.8539804e-06
0.75117735
5.3139336e-06
0.75117392
4.8660304e-06
0.75117054
4.5060912e-06
0.7511672
4.2316192e-06
0.75116388
4.0359696e-06
0.75116059
3.9214341e-06
3.8503363e-06
0.75000166
-1.4503091e-05
0.75000424
-4.3533156e-05
0.75001016
-7.3347687e-05
0.75001764
-0.00010289085
0.75002734
-0.00013288769
0.7500399
-0.00016404523
0.7500542
-0.00019525907
0.75007092
-0.0002272106
0.75009077
-0.00026056317
0.75011266
-0.00029415779
0.75013791
-0.00032920833
0.75016546
-0.00036449842
0.75019664
-0.00040117643
0.75023101
-0.00043854949
0.75026929
-0.00047647812
0.75031043
-0.00051477085
0.75035514
-0.00055257649
0.75040472
-0.00059138404
0.75045683
-0.00062841259
0.7505139
-0.00066561293
0.75057408
-0.00070006619
0.75063849
-0.00073298812
0.75070632
-0.00076313471
0.75077671
-0.00078921167
0.75085106
-0.00081170141
0.75092708
-0.0008286719
0.75100415
-0.00083941599
0.75108334
-0.0008450865
0.75116141
-0.00084212242
0.75123923
-0.00083310621
0.75131522
-0.00081598703
0.75138775
-0.00079072364
0.7514558
-0.0007581092
0.75151961
-0.00071918275
0.75157653
-0.00067282147
0.75162765
-0.00062173205
0.75167121
-0.0005664015
0.75170689
-0.00050805014
0.75173576
-0.00044796796
0.7517561
-0.00038684598
0.75176941
-0.00032771896
0.75177612
-0.00026989317
0.75177683
-0.0002155215
0.75177159
-0.00016415967
0.75176234
-0.00011817021
0.7517486
-7.6107644e-05
0.75173172
-3.9350197e-05
0.75171237
-6.7094431e-06
0.75169118
2.0129457e-05
0.75166872
4.3193476e-05
0.75164547
6.2179931e-05
0.75162244
7.6835845e-05
0.75159939
8.8138402e-05
0.75157659
9.6472432e-05
0.75155365
0.00010281858
0.75153253
0.0001057364
0.75151156
0.00010797032
0.75149202
0.00010802816
0.75147274
0.00010679181
0.75145497
0.00010451021
0.75143809
0.000102003
0.75142271
9.7655476e-05
0.75140759
9.403377e-05
0.75139331
9.007216e-05
0.75137982
8.5283542e-05
0.7513677
8.0363595e-05
0.75135569
7.6591504e-05
0.75134555
7.1023879e-05
0.75133485
6.7316547e-05
0.75132533
6.2502542e-05
0.75131637
5.8414293e-05
0.75130731
5.4472593e-05
0.75129993
5.0091847e-05
0.75129179
4.7085642e-05
0.75128526
4.3056132e-05
0.7512779
4.0410612e-05
0.7512715
3.674553e-05
0.75126542
3.3862663e-05
0.75126023
3.1158216e-05
0.75125412
2.9229424e-05
0.75124886
2.6268751e-05
0.75124384
2.4074289e-05
0.75123903
2.2039827e-05
0.75123441
2.0160055e-05
0.75122998
1.8429658e-05
0.75122571
1.6843383e-05
0.75122158
1.5396085e-05
0.7512176
1.4082751e-05
0.75121373
1.2898499e-05
0.75120998
1.1838577e-05
0.75120632
1.0898355e-05
0.75120275
1.0073311e-05
0.75119926
9.3590643e-06
0.75119583
8.7512657e-06
0.75119246
8.2459947e-06
0.75118913
7.8385792e-06
0.75118584
7.5274257e-06
0.75118257
7.3033288e-06
0.75117931
7.1880051e-06
7.1516805e-06
0.75000161
-1.5515039e-05
0.75000466
-4.6571533e-05
0.75000975
-7.8432178e-05
0.75001692
-0.00011005729
0.75002683
-0.00014278718
0.75003774
-0.00017494509
0.75005213
-0.00020964228
0.75006831
-0.00024337661
0.75008758
-0.00027982834
0.75010948
-0.00031605287
0.75013356
-0.000353279
0.75016177
-0.00039270358
0.75019249
-0.00043188371
0.75022648
-0.00047253445
0.75026393
-0.00051391855
0.7503056
-0.00055643974
0.75035107
-0.00059803788
0.75040048
-0.0006407799
0.75045452
-0.00068245457
0.75051209
-0.00072316877
0.75057437
-0.00076234729
0.75064072
-0.00079933002
0.75071097
-0.00083338252
0.75078548
-0.00086370774
0.75086264
-0.00088886124
0.75094255
-0.00090858114
0.75102576
-0.00092262009
0.75110906
-0.00092838396
0.75119333
-0.00092638386
0.7512763
-0.00091608229
0.75135686
-0.00089654289
0.75143502
-0.00086887978
0.75150899
-0.0008320847
0.75157646
-0.00078665234
0.75163822
-0.0007345804
0.75169162
-0.00067513614
0.75173724
-0.00061202632
0.7517747
-0.00054551322
0.75180266
-0.00047594215
0.75182308
-0.00040726516
0.75183509
-0.00033974127
0.75183927
-0.00027407565