/*--------------------------------*- C++ -*----------------------------------*\
| =========                 |                                                 |
| \\      /  F ield         | OpenFOAM: The Open Source CFD Toolbox           |
|  \\    /   O peration     | Version:  2406                                  |
|   \\  /    A nd           | Website:  www.openfoam.com                      |
|    \\/     M anipulation  |                                                 |
\*---------------------------------------------------------------------------*/
FoamFile
{
    version     2.0;
    format      ascii;
    arch        "LSB;label=32;scalar=64";
    class       volVectorField;
    location    "800";
    object      U;
}
// * * * * * * * * * * * * * * * * * * * * * * * * * * * * * * * * * * * * * //

dimensions      [0 1 -1 0 0 0 0];

internalField   nonuniform List<vector> 
16045
(
(30.000021 -2.9909982e-05 0)
(30.000161 -0.00010526877 0)
(30.000412 -0.00019902232 0)
(30.000767 -0.00030791292 0)
(30.001219 -0.00042958741 0)
(30.001769 -0.00056305945 0)
(30.002418 -0.00070773453 -9.3301043e-25)
(30.003167 -0.00086306026 0)
(30.004016 -0.0010285397 0)
(30.004967 -0.0012037298 0)
(30.006018 -0.0013881943 0)
(30.007171 -0.0015814561 0)
(30.008426 -0.0017829673 7.9470726e-25)
(30.009781 -0.0019920754 0)
(30.011236 -0.0022080063 0)
(30.01279 -0.0024298364 0)
(30.014439 -0.0026564768 0)
(30.01618 -0.0028866498 -2.948471e-25)
(30.018008 -0.0031188907 -2.7812867e-25)
(30.019917 -0.0033515269 0)
(30.0219 -0.0035826994 0)
(30.023949 -0.0038103533 0)
(30.026054 -0.0040322774 0)
(30.028202 -0.0042461138 0)
(30.030382 -0.0044494183 2.8516426e-25)
(30.032579 -0.0046396902 0)
(30.034779 -0.0048144546 1.7292119e-25)
(30.036965 -0.0049713073 9.624087e-27)
(30.03912 -0.0051080107 6.7721806e-27)
(30.041228 -0.0052225472 -6.3954583e-27)
(30.043271 -0.0053132161 2.1519713e-27)
(30.045234 -0.0053786817 2.7757427e-27)
(30.0471 -0.0054180494 -5.3034086e-27)
(30.048856 -0.005430904 1.472305e-25)
(30.050488 -0.0054173322 -1.2650535e-26)
(30.051986 -0.0053779387 -2.0663255e-27)
(30.053341 -0.0053138284 1.4715679e-26)
(30.054546 -0.0052265684 0)
(30.0556 -0.0051181383 1.9616113e-26)
(30.056499 -0.0049908521 3.0727308e-25)
(30.057246 -0.0048472856 0)
(30.057845 -0.0046901767 0)
(30.0583 -0.0045223408 3.6914606e-25)
(30.05862 -0.004346584 0)
(30.058814 -0.0041656213 3.8109104e-25)
(30.05889 -0.0039820124 0)
(30.058861 -0.0037981058 0)
(30.058738 -0.0036160007 0)
(30.058531 -0.003437521 0)
(30.058253 -0.0032642047 0)
(30.057913 -0.0030973034 0)
(30.057522 -0.0029377926 0)
(30.057091 -0.0027863896 0)
(30.056627 -0.0026435755 0)
(30.056139 -0.0025096229 0)
(30.055634 -0.0023846232 0)
(30.055118 -0.0022685149 0)
(30.054597 -0.002161113 -2.8113285e-25)
(30.054077 -0.0020621308 0)
(30.053559 -0.0019712084 0)
(30.053049 -0.0018879295 0)
(30.052548 -0.0018118423 0)
(30.052059 -0.0017424721 0)
(30.051584 -0.0016793381 0)
(30.051124 -0.0016219586 0)
(30.050678 -0.0015698645 0)
(30.05025 -0.0015226004 -1.7934516e-25)
(30.049837 -0.0014797329 0)
(30.049441 -0.0014408507 0)
(30.049061 -0.0014055702 0)
(30.048698 -0.001373532 0)
(30.04835 -0.0013444054 0)
(30.048017 -0.0013178841 0)
(30.047699 -0.001293689 0)
(30.047395 -0.0012715638 0)
(30.047105 -0.0012512764 0)
(30.046827 -0.0012326152 0)
(30.046562 -0.0012153893 0)
(30.046308 -0.0011994259 0)
(30.046065 -0.001184569 0)
(30.045833 -0.0011706784 0)
(30.04561 -0.0011576273 0)
(30.045395 -0.0011453027 0)
(30.04519 -0.0011336018 0)
(30.044992 -0.0011224342 0)
(30.044801 -0.0011117168 0)
(30.044617 -0.001101378 0)
(30.044439 -0.0010913516 0)
(30.044266 -0.0010815821 0)
(30.044099 -0.0010720181 0)
(30.043937 -0.001062619 0)
(30.043779 -0.0010533478 0)
(30.043625 -0.0010441804 0)
(30.043475 -0.001035095 0)
(30.043328 -0.0010260995 0)
(30.043183 -0.00101717 0)
(30.043045 -0.0010084751 0)
(30.042899 -0.00099971439 0)
(30.04279 -0.00099264811 0)
(30.042593 -0.00098361713 0)
(30.000014 -8.8262068e-05 0)
(30.000126 -0.00028516308 0)
(30.000349 -0.00050591139 -9.8308832e-25)
(30.000681 -0.00074511303 0)
(30.001113 -0.00099929435 0)
(30.001643 -0.0012674518 0)
(30.002274 -0.0015491031 9.3294692e-25)
(30.003006 -0.0018436378 0)
(30.003839 -0.0021504168 9.0227931e-25)
(30.004773 -0.0024688173 0)
(30.00581 -0.0027981511 0)
(30.006949 -0.0031375784 0)
(30.00819 -0.0034860551 -7.9464068e-25)
(30.009534 -0.0038422912 0)
(30.010978 -0.0042047157 0)
(30.012523 -0.0045714411 0)
(30.014165 -0.0049402409 -9.8267299e-25)
(30.015901 -0.0053085241 3.1992521e-25)
(30.017727 -0.0056733402 5.7289716e-25)
(30.019638 -0.0060313769 -5.3541798e-25)
(30.021625 -0.0063789922 0)
(30.023682 -0.0067122444 0)
(30.025798 -0.0070269624 7.8365873e-25)
(30.027962 -0.007318814 3.413201e-25)
(30.030162 -0.0075834159 -2.8513199e-25)
(30.032383 -0.0078164396 0)
(30.034611 -0.0080137557 -1.8252506e-25)
(30.036828 -0.0081715682 0)
(30.039019 -0.0082865748 0)
(30.041165 -0.0083561005 0)
(30.04325 -0.0083782455 -9.48679e-27)
(30.045256 -0.0083519876 9.4861716e-27)
(30.047166 -0.0082772771 0)
(30.048965 -0.0081550797 -1.0554917e-25)
(30.050641 -0.0079873816 -4.1663571e-26)
(30.052181 -0.0077771495 0)
(30.053576 -0.0075282446 -3.3559698e-26)
(30.054819 -0.0072452923 -3.3715588e-27)
(30.055905 -0.0069335215 3.6929331e-26)
(30.056834 -0.0065985769 6.654126e-27)
(30.057606 -0.0062463206 0)
(30.058225 -0.0058826333 0)
(30.058696 -0.0055132256 7.1525718e-27)
(30.059026 -0.0051434746 0)
(30.059226 -0.0047782864 -3.8106707e-25)
(30.059306 -0.0044219946 0)
(30.059275 -0.0040782928 3.8852314e-25)
(30.059147 -0.0037502028 0)
(30.058933 -0.0034400727 0)
(30.058645 -0.0031496019 -3.7285585e-25)
(30.058294 -0.0028798863 3.6437548e-25)
(30.05789 -0.0026314784 0)
(30.057445 -0.0024044578 0)
(30.056966 -0.0021985042 0)
(30.056463 -0.0020129725 -1.5693618e-25)
(30.055943 -0.0018469627 -1.5158902e-25)
(30.055413 -0.0016993869 0)
(30.054878 -0.0015690288 2.8112305e-25)
(30.054343 -0.0014545921 0)
(30.053813 -0.0013547473 0)
(30.05329 -0.0012681642 0)
(30.052778 -0.001193542 -2.3437082e-25)
(30.052278 -0.0011296287 0)
(30.051793 -0.001075239 0)
(30.051323 -0.0010292625 0)
(30.05087 -0.00099067163 0)
(30.050433 -0.00095852318 1.7933881e-25)
(30.050014 -0.00093195949 0)
(30.049611 -0.00091020559 0)
(30.049226 -0.00089256736 0)
(30.048857 -0.00087842503 -1.4344726e-25)
(30.048505 -0.00086723001 0)
(30.048168 -0.00085849736 0)
(30.047847 -0.0008518023 0)
(30.04754 -0.00084677247 0)
(30.047246 -0.00084308419 0)
(30.046966 -0.0008404559 0)
(30.046699 -0.00083864437 0)
(30.046443 -0.00083743942 0)
(30.046198 -0.00083666036 0)
(30.045964 -0.00083615203 0)
(30.04574 -0.00083578152 0)
(30.045524 -0.0008354356 0)
(30.045318 -0.00083501761 0)
(30.045119 -0.00083444623 0)
(30.044927 -0.00083365254 0)
(30.044743 -0.00083258003 0)
(30.044564 -0.00083118186 0)
(30.044392 -0.00082942206 0)
(30.044224 -0.00082727308 0)
(30.044062 -0.00082471838 0)
(30.043904 -0.00082175061 0)
(30.043749 -0.00081837711 0)
(30.043599 -0.00081461743 0)
(30.043452 -0.00081052434 0)
(30.043307 -0.0008061569 0)
(30.043168 -0.00080172675 0)
(30.043021 -0.0007972786 0)
(30.042912 -0.00079397657 0)
(30.042702 -0.00079045165 0)
(30.000012 -0.00014057119 0)
(30.000115 -0.00042815252 0)
(30.000331 -0.00072563249 9.8307988e-25)
(30.000658 -0.0010324906 0)
(30.001087 -0.0013484086 0)
(30.001613 -0.0016740103 0)
(30.00224 -0.0020098693 4.6636101e-25)
(30.002969 -0.0023561275 -4.6634349e-25)
(30.003798 -0.0027126506 -9.0225403e-25)
(30.00473 -0.0030791249 0)
(30.005764 -0.0034550145 0)
(30.006901 -0.0038394993 0)
(30.008141 -0.00423143 8.0903372e-25)
(30.009485 -0.0046293021 0)
(30.010932 -0.005031223 0)
(30.01248 -0.0054348853 3.6635754e-25)
(30.014127 -0.0058375446 1.0049318e-24)
(30.015871 -0.0062360124 0)
(30.017708 -0.0066266598 -5.8727906e-25)
(30.019632 -0.0070054423 5.3538234e-25)
(30.021636 -0.0073679362 -2.3359104e-25)
(30.023712 -0.0077094013 4.7192423e-25)
(30.025851 -0.0080248743 2.2071854e-25)
(30.028041 -0.0083092722 3.5158583e-25)
(30.03027 -0.0085575303 0)
(30.032524 -0.0087647648 4.8317738e-25)
(30.034786 -0.0089264385 0)
(30.03704 -0.0090385482 2.7146237e-25)
(30.039269 -0.0090978065 0)
(30.041454 -0.0091018254 6.7638807e-26)
(30.043578 -0.0090492603 -2.1234813e-26)
(30.045621 -0.0089399434 0)
(30.047568 -0.0087749543 -3.2886513e-26)
(30.049401 -0.0085566507 3.2884777e-26)
(30.051106 -0.0082886278 0)
(30.052672 -0.0079756328 -2.3164232e-25)
(30.054087 -0.0076234016 -6.8996503e-26)
(30.055345 -0.0072384645 6.8994773e-26)
(30.056442 -0.0068279062 0)
(30.057375 -0.006399099 8.4208517e-27)
(30.058147 -0.0059594431 3.5988655e-25)
(30.058759 -0.0055161106 -3.7409715e-25)
(30.05922 -0.0050758193 -3.7626064e-25)
(30.059537 -0.0046446466 7.8379093e-25)
(30.059719 -0.0042278923 3.9591818e-25)
(30.059778 -0.0038299843 0)
(30.059725 -0.0034544422 4.0255436e-25)
(30.059574 -0.0031038795 -3.917151e-25)
(30.059336 -0.0027800434 -1.8931208e-25)
(30.059024 -0.002483888 5.6217218e-25)
(30.058649 -0.0022156632 -3.6437618e-25)
(30.058223 -0.0019750187 0)
(30.057756 -0.0017611098 0)
(30.057257 -0.0015727059 0)
(30.056736 -0.0014082881 0)
(30.056199 -0.001266142 1.5708661e-25)
(30.055654 -0.0011444355 6.3490117e-27)
(30.055106 -0.0010412863 4.3039793e-25)
(30.05456 -0.00095481754 0)
(30.054019 -0.0008832007 0)
(30.053488 -0.00082468808 0)
(30.052968 -0.00077763565 2.343733e-25)
(30.052463 -0.00074051896 -2.233624e-25)
(30.051972 -0.00071194071 0)
(30.051498 -0.00069063554 -2.0088469e-25)
(30.051042 -0.00067546609 0)
(30.050603 -0.00066542192 0)
(30.050182 -0.00065960999 0)
(30.049778 -0.00065724913 0)
(30.049392 -0.00065765929 0)
(30.049023 -0.00066025393 1.4344819e-25)
(30.048671 -0.00066452874 0)
(30.048335 -0.00067005455 -1.2741179e-25)
(30.048014 -0.0006764669 0)
(30.047708 -0.00068345938 0)
(30.047415 -0.00069077517 0)
(30.047136 -0.00069820063 0)
(30.04687 -0.0007055591 0)
(30.046615 -0.00071270526 0)
(30.046372 -0.00071952074 0)
(30.046139 -0.00072590926 0)
(30.045916 -0.00073179395 0)
(30.045701 -0.00073711311 0)
(30.045496 -0.00074181907 0)
(30.045298 -0.00074587457 0)
(30.045108 -0.00074925286 0)
(30.044924 -0.00075193457 0)
(30.044747 -0.000753909 0)
(30.044575 -0.00075517164 0)
(30.044409 -0.00075572641 0)
(30.044247 -0.00075558422 0)
(30.04409 -0.00075476638 0)
(30.043937 -0.0007533058 0)
(30.043787 -0.00075125075 0)
(30.04364 -0.00074867903 0)
(30.043496 -0.00074568327 0)
(30.043357 -0.00074248258 0)
(30.04321 -0.00073915483 0)
(30.043101 -0.0007366522 0)
(30.042898 -0.00073367127 0)
(30.000011 -0.00018683323 0)
(30.00011 -0.00056320657 0)
(30.000317 -0.00094751489 0)
(30.000633 -0.0013427931 0)
(30.001049 -0.0017501263 0)
(30.001563 -0.0021701667 0)
(30.002177 -0.00260342 0)
(30.002892 -0.0030500623 0)
(30.003708 -0.0035099292 0)
(30.004626 -0.0039825741 0)
(30.005648 -0.0044672472 0)
(30.006773 -0.0049628392 0)
(30.008003 -0.0054678258 -1.2286642e-24)
(30.009339 -0.0059802215 -3.9913471e-25)
(30.010779 -0.0064975379 0)
(30.012323 -0.0070167466 -2.1457969e-24)
(30.013969 -0.0075342491 6.803298e-25)
(30.015715 -0.0080458655 -1.586168e-24)
(30.017558 -0.0085468343 8.940012e-25)
(30.019492 -0.0090318405 0)
(30.021511 -0.0094950667 1.0090821e-24)
(30.023607 -0.0099302752 -4.4746766e-25)
(30.02577 -0.010330923 -7.9513525e-25)
(30.027991 -0.010690306 1.298061e-26)
(30.030255 -0.011001738 0)
(30.032548 -0.011258763 -5.9200741e-25)
(30.034855 -0.011455383 4.9235771e-25)
(30.037158 -0.011586313 -2.7144039e-25)
(30.039439 -0.011647221 0)
(30.041678 -0.011634977 -1.9212154e-27)
(30.043857 -0.011547857 1.779726e-26)
(30.045957 -0.011385711 4.486913e-26)
(30.047958 -0.011150076 1.8884363e-25)
(30.049843 -0.0108442 0)
(30.051598 -0.010473 0)
(30.053208 -0.010042935 2.3162618e-25)
(30.054663 -0.0095617875 0)
(30.055954 -0.0090383905 -7.7816359e-26)
(30.057077 -0.0084822988 7.7815211e-26)
(30.05803 -0.0079034274 -3.4190286e-25)
(30.058815 -0.0073116933 1.1490593e-26)
(30.059434 -0.0067166716 -3.970101e-25)
(30.059895 -0.0061272897 7.9192031e-25)
(30.060206 -0.0055515823 2.1873988e-26)
(30.060378 -0.0049965099 4.1686244e-25)
(30.060423 -0.0044678443 8.1389217e-25)
(30.060353 -0.0039701231 1.8566474e-26)
(30.060182 -0.0035066661 3.9170985e-25)
(30.059923 -0.0030796344 -7.8749074e-25)
(30.059588 -0.0026901378 0)
(30.059191 -0.0023383567 0)
(30.058742 -0.0020236875 -7.2959136e-25)
(30.058253 -0.0017448872 0)
(30.057733 -0.0015002157 0)
(30.057192 -0.0012875694 0)
(30.056636 -0.0011046008 0)
(30.056073 -0.00094882237 0)
(30.055509 -0.00081769409 -2.8529609e-25)
(30.054948 -0.00070869555 -6.82362e-25)
(30.054394 -0.0006193779 3.9497596e-25)
(30.053851 -0.00054740872 -2.4855405e-25)
(30.053321 -0.00049059873 -2.3612995e-25)
(30.052806 -0.00044692122 2.2336376e-25)
(30.052308 -0.00041452054 0)
(30.051827 -0.00039171742 -3.5094923e-28)
(30.051364 -0.00037700407 -1.9046743e-25)
(30.050919 -0.0003690395 0)
(30.050494 -0.00036664013 0)
(30.050086 -0.00036876934 0)
(30.049697 -0.0003745245 0)
(30.049325 -0.00038312586 0)
(30.04897 -0.0003939036 0)
(30.048631 -0.0004062859 1.2741193e-25)
(30.048309 -0.00041978766 -1.1970524e-25)
(30.048001 -0.00043399927 0)
(30.047707 -0.00044857791 0)
(30.047427 -0.00046323766 0)
(30.04716 -0.00047774179 0)
(30.046905 -0.00049189551 0)
(30.046661 -0.00050553958 0)
(30.046428 -0.00051854488 0)
(30.046204 -0.00053080749 0)
(30.04599 -0.00054224488 0)
(30.045784 -0.00055279229 0)
(30.045587 -0.00056240022 0)
(30.045396 -0.00057103198 0)
(30.045213 -0.00057866238 0)
(30.045036 -0.0005852762 0)
(30.044864 -0.00059086805 0)
(30.044698 -0.00059544173 0)
(30.044537 -0.00059901149 0)
(30.044379 -0.00060160261 0)
(30.044226 -0.00060325493 0)
(30.044076 -0.00060402462 0)
(30.04393 -0.00060399602 0)
(30.043785 -0.00060327368 0)
(30.043647 -0.00060204924 0)
(30.043499 -0.00060043735 0)
(30.04339 -0.00059908986 0)
(30.043175 -0.00059718826 0)
(30.000011 -0.00023075283 0)
(30.000105 -0.00069422168 0)
(30.000306 -0.0011639212 0)
(30.000613 -0.0016428361 0)
(30.001021 -0.0021321378 0)
(30.001526 -0.0026324868 -9.7741828e-25)
(30.002131 -0.0031445462 0)
(30.002837 -0.0036687723 0)
(30.003645 -0.0042052428 0)
(30.004556 -0.004753655 9.0764465e-25)
(30.005571 -0.0053133116 -8.8423007e-25)
(30.006691 -0.0058830648 1.7167232e-24)
(30.007917 -0.0064612442 8.1878968e-25)
(30.009251 -0.0070456042 0)
(30.010692 -0.0076332701 7.6576933e-25)
(30.01224 -0.0082207014 1.0849225e-24)
(30.013894 -0.0088036494 -6.6053706e-25)
(30.015652 -0.0093771507 2.9128859e-24)
(30.017511 -0.0099355287 1.2146329e-24)
(30.019466 -0.010472432 8.5733228e-25)
(30.021511 -0.010980898 -7.4288844e-25)
(30.02364 -0.011453454 9.2846132e-25)
(30.025842 -0.011882263 0)
(30.028107 -0.012259312 -7.0575201e-25)
(30.030421 -0.012576627 6.1053561e-25)
(30.03277 -0.012826554 -1.0002228e-24)
(30.035138 -0.013002038 -3.8346453e-25)
(30.037505 -0.013096947 0)
(30.039853 -0.013106385 0)
(30.042162 -0.013026993 -4.8334457e-27)
(30.04441 -0.012857215 7.2602029e-26)
(30.046578 -0.012597501 -7.2257352e-26)
(30.048644 -0.012250444 -4.3404106e-25)
(30.05059 -0.011820795 -2.6376616e-25)
(30.052399 -0.011315398 2.0694582e-25)
(30.054056 -0.010742996 1.8256137e-26)
(30.055549 -0.01011394 -1.3176768e-25)
(30.05687 -0.0094398095 -3.1822462e-25)
(30.058013 -0.0087329716 0)
(30.058976 -0.0080061021 3.6737862e-25)
(30.059761 -0.00727171 3.9971311e-25)
(30.060372 -0.0065416975 1.570089e-24)
(30.060817 -0.0058269736 -7.9188555e-25)
(30.061105 -0.0051371553 2.6059348e-26)
(30.061248 -0.0044803518 -2.4875191e-24)
(30.061259 -0.0038630561 2.300845e-26)
(30.061152 -0.0032901119 -8.0960673e-25)
(30.060942 -0.0027647699 8.199285e-25)
(30.060642 -0.0022887985 7.8747956e-25)
(30.060267 -0.0018626474 0)
(30.05983 -0.0014856322 7.6500572e-25)
(30.059343 -0.0011561377 1.4709893e-24)
(30.058818 -0.00087181869 7.1608724e-25)
(30.058265 -0.00062979116 6.8954743e-25)
(30.057692 -0.00042680719 0)
(30.057108 -0.00025940739 0)
(30.056519 -0.0001240497 -6.065358e-25)
(30.055932 -1.7216366e-05 0)
(30.055351 6.4504382e-05 5.4870121e-25)
(30.054779 0.00012435779 -2.6131223e-25)
(30.054221 0.00016537761 2.4855279e-25)
(30.053678 0.00019035967 2.3612848e-25)
(30.053152 0.0002018467 -2.2417866e-25)
(30.052644 0.00020212518 -2.123459e-25)
(30.052156 0.00019322831 2.0123513e-25)
(30.051687 0.00017694797 3.815105e-28)
(30.051238 0.00015484768 0)
(30.050808 0.00012827922 -1.6970866e-25)
(30.050398 9.840138e-05 0)
(30.050007 6.6199372e-05 0)
(30.049633 3.2502559e-05 0)
(30.049278 -1.9966328e-06 0)
(30.048939 -3.6726067e-05 0)
(30.048617 -7.1217834e-05 1.1970527e-25)
(30.04831 -0.00010509346 -1.1195372e-25)
(30.048017 -0.00013805119 0)
(30.047739 -0.00016985373 0)
(30.047473 -0.00020031802 0)
(30.047219 -0.00022930609 0)
(30.046976 -0.00025671721 0)
(30.046745 -0.00028248094 0)
(30.046523 -0.00030655165 0)
(30.04631 -0.00032890338 0)
(30.046106 -0.00034952633 0)
(30.04591 -0.00036842336 0)
(30.045722 -0.00038560808 0)
(30.04554 -0.00040110254 0)
(30.045364 -0.00041493668 0)
(30.045194 -0.00042714715 0)
(30.045029 -0.00043777794 0)
(30.044869 -0.00044688042 0)
(30.044714 -0.00045451524 0)
(30.044562 -0.00046075398 0)
(30.044413 -0.00046568294 0)
(30.044268 -0.00046940719 0)
(30.044124 -0.00047205698 0)
(30.043986 -0.00047379453 0)
(30.043839 -0.00047481282 0)
(30.04373 -0.00047535728 0)
(30.043525 -0.00047549189 0)
(30.000011 -0.00027308164 0)
(30.000102 -0.00082083751 0)
(30.000296 -0.0013737777 0)
(30.000596 -0.0019351363 0)
(30.000995 -0.0025069361 0)
(30.00149 -0.0030905924 9.7740158e-25)
(30.002084 -0.0036873066 -9.7513421e-25)
(30.002778 -0.0042979486 9.5915217e-25)
(30.003574 -0.0049229028 0)
(30.004473 -0.0055620461 -9.076175e-25)
(30.005477 -0.0062147385 1.7811151e-24)
(30.006587 -0.006879773 -3.4591929e-24)
(30.007805 -0.0075553032 0)
(30.009132 -0.0082387807 -2.0190717e-24)
(30.01057 -0.0089268927 -7.4845278e-25)
(30.012118 -0.0096155127 3.770227e-25)
(30.013776 -0.01029966 0)
(30.015543 -0.010973477 2.5706831e-26)
(30.017416 -0.011630231 -1.5097483e-24)
(30.019391 -0.012262352 3.1896419e-25)
(30.021464 -0.012861506 -2.1005222e-24)
(30.023626 -0.013418714 -1.3716431e-24)
(30.025869 -0.013924518 2.1305774e-24)
(30.028183 -0.014369208 0)
(30.030553 -0.014743087 -1.7169759e-24)
(30.032965 -0.015036809 8.5982266e-25)
(30.035401 -0.015241724 7.8947379e-25)
(30.037842 -0.015350288 1.1141115e-25)
(30.040268 -0.015356446 -5.5835118e-26)
(30.042657 -0.015256023 -1.0950017e-26)
(30.044987 -0.015047059 -4.7895678e-26)
(30.047234 -0.014730076 -1.0313558e-25)
(30.049377 -0.014308242 4.6747672e-25)
(30.051394 -0.013787417 3.2168867e-25)
(30.053268 -0.013176055 0)
(30.054981 -0.012484964 -1.3787556e-25)
(30.056521 -0.011726935 1.3787289e-25)
(30.057877 -0.010916254 6.5247504e-25)
(30.059044 -0.010068137 0)
(30.06002 -0.0091981214 -1.7552443e-25)
(30.060807 -0.0083214618 -1.7676528e-24)
(30.06141 -0.0074525772 3.3241432e-26)
(30.061837 -0.006604575 0)
(30.0621 -0.0057888856 3.0748745e-26)
(30.062212 -0.0050150185 -5.7941923e-26)
(30.062187 -0.0042904422 -1.0481188e-24)
(30.062041 -0.0036205749 2.1127366e-25)
(30.061789 -0.0030088747 -8.1991228e-25)
(30.061447 -0.0024570073 0)
(30.061029 -0.0019650594 1.6083632e-24)
(30.060551 -0.0015317892 -7.6499961e-25)
(30.060025 -0.0011548832 -2.2511375e-24)
(30.059463 -0.00083120903 -7.1608511e-25)
(30.058876 -0.00055705228 -6.8954667e-25)
(30.058272 -0.00032832437 0)
(30.05766 -0.00014074902 6.408913e-25)
(30.057047 9.9890765e-06 1.2181794e-24)
(30.056438 0.00012812697 0)
(30.055838 0.00021772905 5.5430041e-25)
(30.05525 0.00028262431 0)
(30.054678 0.00032636079 0)
(30.054123 0.00035218192 -2.3678623e-25)
(30.053588 0.00036301474 2.241726e-25)
(30.053072 0.00036147324 1.4530952e-28)
(30.052577 0.00034986601 -2.0065602e-25)
(30.052104 0.00033021307 1.900798e-25)
(30.051651 0.0003042661 -1.7910069e-25)
(30.051218 0.00027353078 1.697049e-25)
(30.050806 0.00023928953 -1.595182e-25)
(30.050413 0.00020262645 0)
(30.05004 0.00016444841 -1.4178706e-25)
(30.049684 0.00012550877 0)
(30.049346 8.6425928e-05 0)
(30.049024 4.770289e-05 0)
(30.048717 9.7439776e-06 1.1195236e-25)
(30.048426 -2.7130252e-05 -1.0449844e-25)
(30.048148 -6.26692e-05 0)
(30.047883 -9.6681287e-05 0)
(30.047631 -0.00012902296 0)
(30.04739 -0.00015959017 0)
(30.047159 -0.00018831082 0)
(30.046939 -0.00021513865 0)
(30.046728 -0.00024004811 0)
(30.046525 -0.00026302998 0)
(30.04633 -0.00028408827 0)
(30.046143 -0.00030323742 0)
(30.045962 -0.00032050077 0)
(30.045788 -0.00033590911 0)
(30.045619 -0.0003495003 0)
(30.045455 -0.00036131902 0)
(30.045296 -0.00037141743 0)
(30.045141 -0.00037985607 0)
(30.04499 -0.00038670577 0)
(30.044842 -0.00039204957 0)
(30.044698 -0.00039598675 0)
(30.044554 -0.00039863157 0)
(30.044417 -0.00040013414 0)
(30.04427 -0.00040060176 0)
(30.044161 -0.00040043334 0)
(30.043948 -0.00039910821 0)
(30.00001 -0.0003140709 0)
(30.000099 -0.00094367434 0)
(30.000288 -0.0015781127 0)
(30.00058 -0.00222078 -1.0218184e-24)
(30.000969 -0.0028741108 0)
(30.001454 -0.0035398262 -1.0017361e-24)
(30.002036 -0.0042192832 9.7511425e-25)
(30.002718 -0.0049134695 -9.5913046e-25)
(30.003503 -0.0056228799 0)
(30.00439 -0.006347457 0)
(30.005384 -0.0070865573 -8.9688559e-25)
(30.006485 -0.007838894 3.0821572e-24)
(30.007696 -0.0086024481 -1.2837486e-24)
(30.009019 -0.0093743893 1.2233013e-24)
(30.010456 -0.010150999 1.6052576e-24)
(30.012007 -0.010927602 3.8398241e-25)
(30.013674 -0.011698518 0)
(30.015454 -0.012457017 -1.3267296e-24)
(30.017348 -0.013195325 0)
(30.019351 -0.013904651 -8.6947626e-25)
(30.021459 -0.014575266 1.3174699e-24)
(30.023666 -0.015196638 -1.4382647e-24)
(30.025962 -0.015757625 4.3954786e-25)
(30.028336 -0.016246735 -7.4196046e-25)
(30.030777 -0.01665245 2.8642184e-24)
(30.033267 -0.016963622 -8.1160665e-25)
(30.035788 -0.01716991 -1.0171728e-24)
(30.038322 -0.017262271 1.1054603e-25)
(30.040844 -0.017233446 -1.1053682e-25)
(30.043332 -0.017078452 -1.887854e-25)
(30.045761 -0.016795004 0)
(30.048106 -0.01638386 0)
(30.050342 -0.015849038 3.1293718e-25)
(30.052446 -0.01519788 -2.1041697e-25)
(30.054397 -0.014440926 4.515864e-25)
(30.056176 -0.013591626 0)
(30.05777 -0.012665853 0)
(30.059166 -0.011681286 -6.8796636e-25)
(30.060358 -0.010656685 1.91265e-25)
(30.061345 -0.0096111146 -1.9126704e-25)
(30.062129 -0.0085631814 1.6498291e-24)
(30.062716 -0.0075303325 -8.3218254e-25)
(30.063116 -0.0065282704 0)
(30.063343 -0.0055705102 -8.6234101e-25)
(30.06341 -0.0046680993 1.7325844e-24)
(30.063334 -0.0038294951 0)
(30.063134 -0.0030605879 1.7676223e-24)
(30.062825 -0.0023648456 0)
(30.062426 -0.0017435486 0)
(30.061952 -0.0011960835 -1.608338e-24)
(30.061419 -0.00072027089 1.5951734e-24)
(30.060841 -0.00031269534 1.3226952e-24)
(30.06023 3.0971887e-05 3.6683495e-25)
(30.059597 0.00031568526 1.2383244e-24)
(30.058952 0.00054676489 1.3561476e-24)
(30.058303 0.00072968106 -6.408673e-25)
(30.057657 0.00086987751 -6.1162883e-25)
(30.057019 0.00097263418 5.8596981e-25)
(30.056393 0.0010429623 2.1143454e-27)
(30.055783 0.0010855388 0)
(30.055192 0.0011046583 0)
(30.054622 0.0011042137 2.3677776e-25)
(30.054073 0.0010876885 0)
(30.053547 0.0010581684 6.8965473e-28)
(30.053043 0.0010183558 6.0022273e-25)
(30.052562 0.00097059569 -1.8862636e-25)
(30.052104 0.00091690269 1.790952e-25)
(30.051667 0.00085899246 0)
(30.051252 0.0007983102 1.1924245e-27)
(30.050857 0.00073606414 -1.4921621e-25)
(30.050483 0.00067325121 1.4178325e-25)
(30.050126 0.000610687 0)
(30.049788 0.00054902877 0)
(30.049467 0.00048879936 0)
(30.049161 0.0004304075 0)
(30.048871 0.00037416563 1.044962e-25)
(30.048595 0.00032030721 -9.7071877e-26)
(30.048332 0.00026899929 0)
(30.048081 0.00022035548 0)
(30.047842 0.00017444614 0)
(30.047613 0.00013130688 0)
(30.047395 9.0946205e-05 0)
(30.047186 5.3351397e-05 0)
(30.046985 1.8493246e-05 0)
(30.046792 -1.3670038e-05 0)
(30.046607 -4.3190198e-05 0)
(30.046428 -7.0126461e-05 0)
(30.046255 -9.4544338e-05 0)
(30.046088 -0.00011651476 0)
(30.045926 -0.00013611398 0)
(30.045769 -0.0001534237 0)
(30.045616 -0.00016853205 0)
(30.045466 -0.00018153406 0)
(30.04532 -0.00019253502 0)
(30.045177 -0.00020164612 0)
(30.045035 -0.00020900468 0)
(30.044898 -0.0002147153 0)
(30.044753 -0.00021902797 0)
(30.044644 -0.00022175367 0)
(30.044439 -0.00022386393 0)
(30.00001 -0.00035383867 0)
(30.000096 -0.0010629726 0)
(30.00028 -0.001776927 -5.1589481e-25)
(30.000564 -0.0024992451 1.5376834e-24)
(30.000943 -0.0032326929 0)
(30.001416 -0.003979372 1.001719e-24)
(30.001986 -0.0047410003 1.0031849e-24)
(30.002656 -0.0055189125 0)
(30.003426 -0.0063139282 0)
(30.004301 -0.0071262576 0)
(30.005281 -0.0079554388 -4.5313654e-25)
(30.006371 -0.0088002643 4.8596998e-25)
(30.007573 -0.0096586861 1.7156871e-24)
(30.008889 -0.010527713 1.6881362e-24)
(30.010323 -0.011403323 2.0475474e-24)
(30.011876 -0.012280371 -3.9195099e-25)
(30.013549 -0.013152521 0)
(30.015343 -0.014012197 0)
(30.017257 -0.014850566 0)
(30.019289 -0.015657559 1.8389861e-24)
(30.021435 -0.016421951 5.6913735e-25)
(30.023689 -0.017131506 3.4741725e-24)
(30.026043 -0.017773186 -1.2629929e-24)
(30.028486 -0.018333458 1.895651e-24)
(30.031004 -0.018798665 -1.6259497e-24)
(30.033582 -0.019155492 1.0393022e-24)
(30.036201 -0.019391507 1.6282135e-24)
(30.038838 -0.019495741 0)
(30.04147 -0.019459307 -9.9073548e-26)
(30.044072 -0.019276003 1.8496274e-25)
(30.046615 -0.018942858 -6.8106323e-26)
(30.049071 -0.018460578 1.9187004e-25)
(30.051414 -0.017833831 -1.1607902e-24)
(30.053617 -0.017071342 -1.7647408e-25)
(30.055656 -0.01618576 -5.1193648e-25)
(30.05751 -0.01519329 2.7078073e-25)
(30.059162 -0.014113098 0)
(30.060601 -0.01296653 1.6469958e-25)
(30.061819 -0.011776193 1.8898901e-25)
(30.062815 -0.010564977 0)
(30.063591 -0.009355102 9.3790464e-25)
(30.064155 -0.0081672431 1.833505e-24)
(30.06452 -0.0070198179 1.8648122e-24)
(30.0647 -0.0059284607 0)
(30.064713 -0.0049057094 0)
(30.064577 -0.0039608931 -1.8593569e-24)
(30.064311 -0.0031002058 -1.7675672e-24)
(30.063936 -0.0023269235 0)
(30.063471 -0.001641732 0)
(30.062932 -0.0010431152 1.6906308e-24)
(30.062338 -0.00052777568 -1.5951537e-24)
(30.061701 -9.1048238e-05 1.5693163e-24)
(30.061037 0.00027270265 1.5045291e-24)
(30.060356 0.00056973034 1.9483774e-25)
(30.059667 0.00080660485 -1.3640772e-24)
(30.05898 0.00098996287 -1.6641165e-25)
(30.0583 0.0011263104 0)
(30.057632 0.0012218743 -5.8594432e-25)
(30.056982 0.0012824947 -5.563699e-25)
(30.056352 0.0013135579 0)
(30.055743 0.001319957 4.9967309e-25)
(30.055159 0.0013060798 4.7224541e-25)
(30.054599 0.0012758123 4.4604216e-25)
(30.054064 0.0012325594 2.11491e-25)
(30.053554 0.0011792713 -2.2437472e-27)
(30.053068 0.0011184797 5.6337504e-25)
(30.052607 0.0010523357 1.766755e-25)
(30.052169 0.00098264732 0)
(30.051753 0.00091091972 1.5831649e-25)
(30.051359 0.00083839127 1.4921169e-25)
(30.050985 0.00076606925 0)
(30.05063 0.00069476224 0)
(30.050294 0.00062510804 0)
(30.049975 0.000557602 0)
(30.049672 0.00049261874 0)
(30.049384 0.0004304336 0)
(30.049111 0.00037124046 9.7069341e-26)
(30.048851 0.00031516676 0)
(30.048603 0.00026228763 0)
(30.048367 0.00021263589 0)
(30.048141 0.00016621218 0)
(30.047925 0.00012299232 0)
(30.047719 8.2933448e-05 0)
(30.047521 4.5979045e-05 0)
(30.047331 1.2062631e-05 0)
(30.047148 -1.888918e-05 0)
(30.046971 -4.6954992e-05 0)
(30.046801 -7.2217196e-05 0)
(30.046636 -9.4761303e-05 0)
(30.046476 -0.00011467575 0)
(30.046321 -0.00013205208 0)
(30.046169 -0.00014698561 0)
(30.046021 -0.00015957603 0)
(30.045876 -0.00016992898 0)
(30.045735 -0.00017815451 0)
(30.045594 -0.00018437258 0)
(30.045459 -0.00018870159 0)
(30.045314 -0.00019125867 0)
(30.045207 -0.00019226756 0)
(30.044998 -0.00019154275 0)
(30.00001 -0.00039239673 0)
(30.000093 -0.0011787086 0)
(30.000271 -0.0019700438 1.0577271e-24)
(30.000547 -0.0027701857 0)
(30.000916 -0.0035822484 0)
(30.001377 -0.0044087211 1.0323388e-24)
(30.001933 -0.0052516811 -1.0031662e-24)
(30.002588 -0.0061127799 -2.0091633e-24)
(30.003343 -0.0069931097 0)
(30.004203 -0.0078930929 0)
(30.005169 -0.0088124067 0)
(30.006246 -0.0097498934 3.6486099e-26)
(30.007437 -0.010703452 0)
(30.008746 -0.011669921 1.7630098e-24)
(30.010176 -0.012644958 -3.2433021e-24)
(30.01173 -0.013622938 -2.7924491e-24)
(30.013411 -0.014596856 -3.8209168e-25)
(30.01522 -0.015558254 0)
(30.017158 -0.016497184 0)
(30.019223 -0.017402215 -1.8233549e-24)
(30.021412 -0.018260503 -5.845938e-25)
(30.023721 -0.019057939 -6.1038469e-24)
(30.026141 -0.019779378 -3.6527234e-24)
(30.028663 -0.020408973 -1.5438656e-24)
(30.031273 -0.020930614 5.9913173e-25)
(30.033954 -0.021328468 1.5762409e-24)
(30.036686 -0.021587626 -1.2818143e-24)
(30.039447 -0.021694809 -3.4618596e-25)
(30.042209 -0.02163913 0)
(30.044944 -0.021412857 0)
(30.047622 -0.0210121 5.6902058e-26)
(30.050212 -0.020437396 -1.1736364e-25)
(30.052682 -0.019694091 5.2248575e-25)
(30.055002 -0.01879249 8.1531011e-25)
(30.057144 -0.01774771 7.5872331e-25)
(30.059086 -0.016579238 2.9188457e-25)
(30.060808 -0.015310191 0)
(30.062295 -0.013966335 0)
(30.063542 -0.012574921 0)
(30.064545 -0.011163459 0)
(30.06531 -0.009758515 1.0767902e-25)
(30.065845 -0.008384625 -1.8333692e-24)
(30.066165 -0.0070634251 -1.8646893e-24)
(30.066287 -0.0058130288 3.9434427e-24)
(30.066232 -0.0046476784 0)
(30.066022 -0.0035776575 5.7353446e-24)
(30.065678 -0.002609433 0)
(30.065223 -0.0017459706 -3.7085278e-24)
(30.064679 -0.00098717835 3.5979873e-24)
(30.064063 -0.00033041547 -5.1654177e-24)
(30.063395 0.00022897261 0)
(30.062691 0.00069713743 -1.5692302e-24)
(30.061964 0.0010812572 -1.5044428e-24)
(30.061225 0.0013891111 -1.4384159e-24)
(30.060486 0.0016287298 1.3880296e-24)
(30.059753 0.0018081081 1.3177298e-24)
(30.059033 0.0019349871 0)
(30.058332 0.0020166956 0)
(30.057652 0.0020600394 0)
(30.056997 0.0020712391 -1.0562295e-24)
(30.056369 0.0020558972 -1.0811494e-27)
(30.055768 0.0020189971 -4.7222635e-25)
(30.055194 0.0019649165 -2.4045203e-27)
(30.054648 0.0018974647 4.1820407e-25)
(30.05413 0.0018199158 -3.9730154e-25)
(30.053639 0.0017350596 -3.4078301e-27)
(30.053173 0.0016452477 8.7663926e-26)
(30.052732 0.0015524421 2.5016263e-25)
(30.052314 0.0014582624 0)
(30.051919 0.0013640283 0)