/*--------------------------------*- C++ -*----------------------------------*\
| =========                 |                                                 |
| \\      /  F ield         | OpenFOAM: The Open Source CFD Toolbox           |
|  \\    /   O peration     | Version:  2406                                  |
|   \\  /    A nd           | Website:  www.openfoam.com                      |
|    \\/     M anipulation  |                                                 |
\*---------------------------------------------------------------------------*/
FoamFile
{
    version     2.0;
    format      ascii;
    arch        "LSB;label=32;scalar=64";
    class       volScalarField;
    location    "600";
    object      k;
}
// * * * * * * * * * * * * * * * * * * * * * * * * * * * * * * * * * * * * * //

dimensions      [0 2 -2 0 0 0 0];

internalField   nonuniform List<scalar> 
16045
(
0.054775685
0.047087618
0.041212759
0.036587973
0.032859061
0.029792632
0.027229276
0.025056255
0.023192169
0.021576208
0.020162906
0.018916546
0.017810049
0.016820912
0.015932278
0.015129056
0.01440049
0.013735825
0.013128201
0.012569453
0.012055363
0.011579332
0.011139022
0.010728768
0.010347661
0.0099905358
0.009657635
0.0093440163
0.0090508799
0.0087733088
0.0085133554
0.0082659686
0.0080339858
0.0078121135
0.007603928
0.0074037986
0.0072160302
0.0070345723
0.0068644516
0.0066991334
0.0065443781
0.0063930966
0.0062518006
0.0061127982
0.0059833629
0.0058551561
0.0057362261
0.0056175609
0.0055079824
0.0053977822
0.0052965711
0.0051939099
0.005100222
0.0050042916
0.0049174022
0.0048275013
0.0047467769
0.0046622948
0.0045871786
0.0045075867
0.0044375848
0.0043624166
0.0042970988
0.0042259367
0.0041649284
0.004097395
0.0040403664
0.0039761315
0.0039227774
0.0038615584
0.0038115938
0.0037531468
0.003706317
0.0036504082
0.0036065113
0.0035528921
0.0035117925
0.0034601927
0.0034217984
0.0033719705
0.0033361646
0.0032879563
0.003254536
0.003207897
0.0031766329
0.0031314996
0.0031022553
0.0030584768
0.003031194
0.0029886189
0.0029632145
0.0029217418
0.0028981388
0.0028575973
0.002835879
0.0027960945
0.0027761447
0.0027378209
0.0027162795
0.0026737655
0.054775684
0.047087611
0.041212745
0.036587953
0.032859034
0.029792598
0.027229237
0.025056212
0.023192122
0.021576158
0.020162853
0.018916491
0.017809992
0.016820854
0.015932218
0.015128995
0.014400429
0.013735763
0.01312814
0.012569392
0.012055302
0.011579271
0.011138963
0.010728709
0.010347603
0.00999048
0.0096575813
0.0093439643
0.0090508303
0.0087732613
0.0085133107
0.0082659262
0.0080339464
0.0078120766
0.0076038943
0.0074037675
0.0072160022
0.0070345469
0.0068644293
0.0066991136
0.0065443612
0.0063930821
0.0062517886
0.0061127884
0.0059833554
0.0058551506
0.0057362225
0.0056175588
0.0055079821
0.0053977832
0.0052965734
0.0051939132
0.0051002264
0.0050042969
0.0049174083
0.004827508
0.0047467841
0.0046623024
0.0045871867
0.0045075951
0.0044375935
0.0043624254
0.0042971079
0.0042259459
0.0041649378
0.0040974044
0.004040376
0.0039761411
0.0039227871
0.0038615681
0.0038116036
0.0037531567
0.003706327
0.0036504181
0.0036065214
0.0035529021
0.0035118026
0.0034602028
0.0034218087
0.0033719807
0.003336175
0.0032879666
0.0032545464
0.0032079074
0.0031766433
0.00313151
0.0031022657
0.0030584872
0.0030312044
0.0029886293
0.0029632249
0.0029217521
0.0028981491
0.0028576076
0.0028358893
0.0027961047
0.0027761549
0.002737831
0.0027162896
0.0026737755
0.054775681
0.047087613
0.04121274
0.036587949
0.032859026
0.029792589
0.027229228
0.025056199
0.023192112
0.021576146
0.02016284
0.018916479
0.017809978
0.016820841
0.015932205
0.01512898
0.014400416
0.01373575
0.013128126
0.012569381
0.012055291
0.011579261
0.011138955
0.010728701
0.010347597
0.0099904765
0.0096575788
0.009343963
0.0090508328
0.0087732651
0.0085133162
0.008265935
0.0080339576
0.007812089
0.0076039099
0.0074037857
0.0072160218
0.0070345684
0.0068644538
0.0066991393
0.0065443879
0.0063931109
0.0062518191
0.006112819
0.005983387
0.0058551835
0.0057362558
0.0056175918
0.0055080158
0.0053978175
0.0052966073
0.0051939466
0.0051002601
0.0050043305
0.0049174412
0.0048275402
0.0047468165
0.0046623345
0.0045872179
0.0045076257
0.004437624
0.0043624556
0.0042971373
0.0042259746
0.0041649664
0.0040974327
0.0040404036
0.003976168
0.0039228138
0.0038615945
0.0038116296
0.003753182
0.003706352
0.0036504429
0.003606546
0.0035529261
0.0035118263
0.0034602262
0.003421832
0.0033720036
0.0033361974
0.0032879887
0.0032545685
0.0032079292
0.0031766648
0.0031315311
0.0031022867
0.003058508
0.003031225
0.0029886495
0.0029632449
0.0029217719
0.0028981688
0.002857627
0.0028359085
0.0027961237
0.0027761737
0.0027378496
0.0027163081
0.0026737937
0.054775684
0.047087609
0.041212739
0.036587943
0.032859018
0.029792579
0.027229213
0.025056185
0.023192091
0.021576125
0.020162817
0.018916453
0.017809952
0.016820812
0.015932174
0.01512895
0.014400384
0.013735717
0.013128094
0.012569348
0.012055259
0.01157923
0.011138923
0.010728672
0.01034757
0.0099904501
0.0096575558
0.0093439429
0.0090508141
0.00877325
0.0085133051
0.0082659258
0.008033952
0.0078120878
0.0076039114
0.0074037899
0.0072160304
0.00703458
0.0068644676
0.0066991564
0.0065444084
0.006393133
0.0062518432
0.006112846
0.0059834157
0.005855213
0.005736287
0.0056176248
0.0055080494
0.0053978514
0.0052966423
0.0051939825
0.0051002959
0.0050043663
0.0049174777
0.004827577
0.0047468528
0.0046623705
0.0045872544
0.004507662
0.0044376598
0.0043624909
0.0042971728
0.0042260099
0.0041650012
0.0040974669
0.0040404378
0.003976202
0.0039228474
0.0038616274
0.0038116624
0.0037532145
0.0037063843
0.0036504745
0.0036065773
0.0035529572
0.0035118572
0.0034602566
0.003421862
0.0033720332
0.0033362271
0.003288018
0.0032545974
0.0032079577
0.0031766932
0.0031315593
0.0031023147
0.0030585355
0.0030312524
0.0029886768
0.0029632721
0.0029217988
0.0028981955
0.0028576535
0.0028359349
0.0027961499
0.0027761998
0.0027378755
0.0027163337
0.0026738191
0.05477568
0.047087612
0.041212734
0.03658794
0.032859012
0.02979257
0.027229204
0.025056172
0.02319208
0.02157611
0.0201628
0.018916436
0.017809931
0.016820792
0.015932155
0.015128929
0.014400364
0.013735697
0.013128074
0.01256933
0.012055241
0.011579213
0.01113891
0.01072866
0.01034756
0.0099904443
0.0096575522
0.009343942
0.0090508183
0.0087732572
0.0085133155
0.0082659414
0.0080339718
0.0078121104
0.0076039389
0.0074038219
0.0072160652
0.0070346185
0.0068645104
0.0066992018
0.0065444559
0.0063931837
0.0062518965
0.0061129003
0.0059834716
0.0058552709
0.0057363456
0.0056176834
0.0055081089
0.0053979115
0.005296702
0.0051940416
0.0051003553
0.0050044255
0.0049175359
0.0048276342
0.0047469099
0.004662427
0.0045873097
0.0045077163
0.0044377137
0.004362544
0.0042972248
0.0042260607
0.0041650516
0.0040975165
0.0040404865
0.0039762495
0.0039228945
0.0038616739
0.0038117081
0.0037532591
0.0037064284
0.0036505181
0.0036066203
0.0035529992
0.0035118987
0.0034602975
0.0034219026
0.0033720731
0.0033362664
0.0032880566
0.0032546358
0.0032079956
0.0031767307
0.0031315961
0.0031023512
0.0030585716
0.0030312882
0.002988712
0.002963307
0.0029218333
0.0028982298
0.0028576873
0.0028359685
0.002796183
0.0027762327
0.002737908
0.002716366
0.0026738508
0.054775683
0.047087609
0.041212736
0.036587936
0.032859007
0.029792564
0.027229193
0.025056162
0.023192064
0.021576094
0.020162783
0.018916415
0.017809911
0.016820769
0.01593213
0.015128905
0.014400338
0.013735672
0.013128049
0.012569304
0.012055217
0.011579191
0.011138889
0.010728642
0.010347545
0.0099904303
0.0096575428
0.0093439366
0.0090508158
0.0087732593
0.0085133233
0.0082659523
0.0080339878
0.007812132
0.0076039647
0.0074038515
0.0072161005
0.0070346578
0.0068645529
0.0066992483
0.0065445065
0.0063932364
0.0062519515
0.0061129583
0.0059835315
0.0058553316
0.0057364079
0.0056177472
0.0055081729
0.0053979754
0.0052967666
0.0051941065
0.0051004196
0.0050044892
0.0049175997
0.0048276978
0.0047469725
0.0046624887
0.0045873712
0.0045077772
0.0044377735
0.0043626028
0.0042972832
0.0042261185
0.0041651083
0.0040975722
0.0040405418
0.0039763042
0.0039229483
0.0038617266
0.0038117603
0.0037533107
0.0037064793
0.0036505679
0.0036066695
0.0035530479
0.0035119469
0.0034603448
0.0034219491
0.003372119
0.0033363119
0.0032881014
0.0032546799
0.0032080389
0.0031767737
0.0031316385
0.0031023931
0.0030586128
0.003031329
0.0029887523
0.002963347
0.0029218727
0.0028982688
0.0028577259
0.0028360068
0.0027962209
0.0027762703
0.0027379452
0.0027164029
0.0026738873
0.054775682
0.047087609
0.041212733
0.036587933
0.032859001
0.029792557
0.027229183
0.025056152
0.023192049
0.02157608
0.020162763
0.018916397
0.017809888
0.016820748
0.015932105
0.015128883
0.014400311
0.013735649
0.013128024
0.012569283
0.012055194
0.011579173
0.011138869
0.010728629
0.010347532
0.0099904249
0.0096575379
0.0093439398
0.0090508207
0.0087732726
0.0085133391
0.0082659766
0.0080340151
0.0078121675
0.0076040037
0.0074038981
0.0072161504
0.0070347145
0.0068646126
0.0066993138
0.0065445744
0.006393309
0.0062520259
0.0061130362
0.0059836105
0.0058554131
0.0057364897
0.0056178307
0.0055082562
0.0053980595
0.0052968501
0.0051941904
0.0051005025
0.005004572
0.0049176812
0.0048277789
0.0047470522
0.004662568
0.0045874488
0.0045078543
0.004437849
0.0043626779
0.0042973567
0.0042261914
0.0041651796
0.004097643
0.004040611
0.0039763729
0.0039230156
0.0038617933
0.0038118258
0.0037533756
0.0037065431
0.003650631
0.0036067317
0.0035531093
0.0035120074
0.0034604046
0.0034220079
0.0033721774
0.0033363691
0.0032881583
0.0032547356
0.0032080944
0.003176828
0.0031316924
0.0031024461
0.0030586653
0.0030313806
0.0029888034
0.0029633972
0.0029219223
0.0028983178
0.0028577742
0.0028360545
0.0027962679
0.0027763169
0.002737991
0.0027164484
0.0026739317
0.054775663
0.047087635
0.041212701
0.036587965
0.032858956
0.029792596
0.027229125
0.025056194
0.023191976
0.021576127
0.020162675
0.01891645
0.017809787
0.016820808
0.01593199
0.01512895
0.014400185
0.013735726
0.013127887
0.012569371
0.01205505
0.011579273
0.011138721
0.010728742
0.010347383
0.0099905522
0.0096573916
0.0093440827
0.0090506795
0.0087734322
0.0085132049
0.0082661539
0.0080338889
0.0078123631
0.0076038853
0.007404112
0.0072160387
0.0070349467
0.0068645049
0.0066995637
0.0065444682
0.0063935749
0.0062519198
0.0061133137
0.0059835061
0.0058556953
0.0057363906
0.00561811
0.0055081654
0.0053983317
0.0052967662
0.0051944577
0.0051004177
0.0050048423
0.0049175858
0.0048280596
0.0047469408
0.0046628592
0.0045873252
0.0045081487
0.0044377215
0.0043629678
0.0042972296
0.0042264771
0.0041650493
0.0040979295
0.0040404746
0.003976658
0.0039228828
0.0038620604
0.0038117181
0.0037536041
0.0037064735
0.0036508229
0.003606678
0.0035533104
0.0035119025
0.0034606958
0.0034217725
0.0033726164
0.0033359879
0.0032887063
0.0032542965
0.0032086404
0.0031764276
0.0031321868
0.0031020774
0.0030591538
0.0030309938
0.0029893131
0.002962993
0.0029224425
0.0028978695
0.0028584177
0.0028353625
0.0027969878
0.0027754747
0.0027374937
0.0027210939
0.0026687464
0.054775663
0.047087635
0.0412127
0.036587961
0.032858953
0.029792587
0.027229116
0.02505618
0.023191962
0.021576108
0.020162656
0.018916425
0.017809764
0.016820779
0.015931964
0.015128919
0.014400156
0.013735694
0.013127859
0.01256934
0.012055024
0.011579246
0.0111387
0.010728721
0.01034737
0.0099905399
0.0096573882
0.0093440819
0.0090506882
0.0087734449
0.0085132274
0.0082661815
0.0080339263
0.0078124063
0.0076039377
0.0074041704
0.0072161053
0.0070350191
0.0068645842
0.0066996483
0.0065445581
0.0063936692
0.0062520178
0.0061134151
0.0059836097
0.0058558012
0.0057364975
0.0056182183
0.0055082737
0.0053984406
0.0052968743
0.0051945658
0.0051005245
0.0050049486
0.0049176904
0.0048281635
0.0047470428
0.0046629602
0.0045874243
0.0045082467
0.0044378176
0.0043630628
0.0042973226
0.004226569
0.0041651395
0.0040980184
0.0040405619
0.0039767441
0.0039229674
0.0038621437
0.0038118001
0.003753685
0.0037065531
0.0036509014
0.0036067554
0.0035533866
0.0035119776
0.00346077
0.0034218456
0.0033726886
0.0033360592
0.0032887766
0.003254366
0.003208709
0.0031764954
0.0031322538
0.0031021437
0.0030592193
0.0030310586
0.0029893771
0.0029630564
0.0029225052
0.0028979315
0.002858479
0.0028354232
0.0027970479
0.0027755341
0.0027375524
0.0027211524
0.002668804
0.054775683
0.047087606
0.041212727
0.036587923
0.032858985
0.029792534
0.027229153
0.025056113
0.023192003
0.021576024
0.020162702
0.018916326
0.017809814
0.016820665
0.01593202
0.015128792
0.014400221
0.013735555
0.013127934
0.012569192
0.012055111
0.011579093
0.0111388
0.010728567
0.010347484
0.009990388
0.00965752
0.0093439366
0.0090508393
0.0087733091
0.0085133996
0.0082660573
0.0080341208
0.0078122945
0.007604155
0.0074040704
0.0072163452
0.0070349286
0.0068648459
0.0066995639
0.0065448399
0.0063935879
0.0062523159
0.0061133361
0.0059839175
0.0058557265
0.0057368067
0.005618151
0.0055085772
0.0053983814
0.0052971705
0.0051945096
0.0051008187
0.0050048857
0.004917991
0.0048280854
0.004747354
0.0046628659
0.0045877419
0.0045081432
0.0044381331
0.0043629575
0.0042976317
0.004226462
0.0041654458
0.0040979048
0.0040408687
0.0039766264
0.0039232652
0.0038620388
0.0038120678
0.0037536137
0.0037067779
0.003650862
0.0036069598
0.0035533338
0.0035122291
0.0034606229
0.0034222237
0.00337239
0.0033365793
0.0032883655
0.0032549406
0.0032082964
0.0031770281
0.0031318896
0.0031026416
0.003058858
0.0030315717
0.0029889918
0.0029635842
0.0029221067
0.0028985008
0.0028579547
0.0028362337
0.0027964446
0.0027764925
0.0027381641
0.0027166205
0.0026741012
0.054775679
0.04708761
0.041212721
0.036587922
0.032858978
0.029792526
0.027229142
0.025056097
0.023191984
0.021576004
0.020162674
0.018916301
0.017809779
0.016820634
0.015931983
0.015128755
0.014400181
0.013735517
0.01312789
0.012569155
0.01205507
0.011579058
0.011138766
0.010728539
0.010347458
0.0099903721
0.009657506
0.0093439326
0.0090508418
0.0087733225
0.0085134189
0.0082660897
0.0080341612
0.0078123454
0.0076042153
0.007404142
0.0072164243
0.007035017
0.0068649432
0.006699668
0.0065449501
0.0063937041
0.0062524378
0.0061134603
0.0059840458
0.0058558568
0.0057369394
0.0056182829
0.0055087109
0.0053985145
0.0052973037
0.0051946404
0.0051009499
0.0050050147
0.004918119
0.0048282103
0.0047474786
0.0046629878
0.0045878624
0.0045082607
0.0044382499
0.0043630718
0.0042977445
0.0042265721
0.0041655551
0.0040980119
0.0040409744
0.0039767296
0.0039233675
0.0038621394
0.0038121671
0.0037537108
0.003706874
0.0036509567
0.0036070534
0.0035534256
0.0035123198
0.0034607123
0.0034223123
0.0033724769
0.0033366653
0.0032884501
0.0032550246
0.003208379
0.0031771099
0.0031319701
0.0031027214
0.0030589367
0.0030316498
0.0029890686
0.0029636604
0.0029221818
0.0028985754
0.0028580282
0.0028363067
0.0027965166
0.0027765639
0.0027382347
0.0027166902
0.00267417
0.054775662
0.047087632
0.041212692
0.036587952
0.032858932
0.029792562
0.027229077
0.025056136
0.023191903
0.021576043
0.020162578
0.018916341
0.017809666
0.016820678
0.015931852
0.015128806
0.014400035
0.013735575
0.013127735
0.012569221
0.012054906
0.011579138
0.011138597
0.010728633
0.010347293
0.0099904827
0.0096573475
0.0093440657
0.0090506938
0.0087734789
0.0085132873
0.0082662723
0.0080340456
0.0078125571
0.0076041177
0.0074043805
0.0072163432
0.0070352838
0.0068648736
0.0066999597
0.0065448898
0.0063940173
0.0062523813
0.0061137893
0.0059839945
0.0058561916
0.0057368941
0.0056186161
0.005508674
0.005398839
0.0052972724
0.0051949597
0.0051009161
0.0050053344
0.0049180728
0.0048285391
0.0047474142
0.0046633245
0.004587784
0.0045085992
0.0044381655
0.0043634035
0.0042976588
0.0042268983
0.0041654644
0.0040983368
0.0040408762
0.0039770522
0.0039232715
0.0038624421
0.0038120947
0.0037539742
0.0037068388
0.003651182
0.0036070327
0.0035536592
0.0035122472
0.003461035
0.0034221079
0.0033729464
0.0033363146
0.0032890278
0.0032546149
0.0032089539
0.0031767382
0.0031324928
0.0031023807
0.0030594526
0.0030312901
0.0029896051
0.0029632827
0.002922728
0.0028981528
0.002858697
0.0028356397
0.0027972612
0.0027757461
0.0027377613
0.0027213599
0.0026690077
0.05477566
0.04708763
0.04121269
0.036587945
0.032858926
0.029792548
0.027229064
0.025056114
0.023191882
0.021576013
0.020162547
0.018916302
0.017809628
0.016820631
0.015931807
0.015128752
0.014399985
0.013735517
0.013127682
0.012569163
0.012054854
0.011579082
0.01113855
0.010728585
0.010347254
0.0099904462
0.0096573231
0.0093440458
0.0090506878
0.00877348
0.0085133034
0.0082662979
0.0080340865
0.0078126089
0.0076041842
0.0074044586
0.0072164343
0.0070353861
0.0068649865
0.0067000827
0.0065450205
0.0063941564
0.0062525252
0.0061139397
0.0059841468
0.0058563485
0.0057370509
0.0056187757
0.005508832
0.0053989984
0.005297429
0.0051951166
0.0051010697
0.0050054876
0.0049182222
0.0048286878
0.0047475591
0.0046634683
0.004587924
0.004508738
0.0044383007
0.0043635374
0.0042977894
0.0042270275
0.0041655906
0.0040984616
0.0040409982
0.0039771729
0.0039233897
0.0038625589
0.0038122093
0.0037540874
0.00370695
0.0036512919
0.0036071408
0.0035537659
0.0035123523
0.0034611388
0.0034222101
0.0033730476
0.0033364141
0.0032891263
0.0032547119
0.0032090499
0.0031768329
0.0031325864
0.003102473
0.0030595439
0.0030313802
0.0029896942
0.0029633708
0.0029228151
0.0028982389
0.0028587821
0.0028357239
0.0027973444
0.0027758284
0.0027378426
0.0027214409
0.0026690872
0.054775675
0.047087607
0.041212713
0.036587908
0.032858953
0.029792493
0.027229094
0.02505604
0.023191911
0.02157592
0.020162574
0.018916192
0.017809655
0.016820501
0.015931837
0.015128603
0.014400019
0.013735354
0.013127721
0.012568989
0.012054902
0.011578899
0.011138613
0.010728401
0.010347332
0.0099902685
0.0096574222
0.0093438782
0.009050814
0.0087733301
0.0085134588
0.0082661697
0.0080342769
0.0078125032
0.0076044097
0.0074043775
0.0072166943
0.0070353245
0.0068652804
0.0067000367
0.006545342
0.0063941205
0.00625287
0.0061139098
0.005984504
0.0058563257
0.0057374111
0.0056187598
0.0055091861
0.0053989904
0.0052977747
0.0051951092
0.0051014116
0.0050054723
0.0049185683
0.0048286544
0.0047479138
0.0046634173
0.004588283
0.0045086753
0.0044386559
0.0043634718
0.0042981363
0.004226958
0.0041659335
0.0040983846
0.0040413401
0.0039770899
0.0039237215
0.003862488
0.00381251
0.0037540486
0.0037072068
0.0036512843
0.0036073765
0.0035537437
0.0035126338
0.0034610218
0.0034226177
0.0033727783
0.0033369625
0.0032887437
0.0032553143
0.0032086652
0.0031773926
0.0031322491
0.0031029973
0.0030592091
0.0030319193
0.0029893346
0.0029639238
0.0029224417
0.002898833
0.0028582823
0.0028365587
0.0027967651
0.0027768106
0.0027384778
0.002716932
0.0026744076
0.054775656
0.047087631
0.041212682
0.036587936
0.032858907
0.029792521
0.027229029
0.025056066
0.023191826
0.021575944
0.020162468
0.018916214
0.017809528
0.016820522
0.01593169
0.015128625
0.014399854
0.013735378
0.013127541
0.01256902
0.012054712
0.01157894
0.011138417
0.010728456
0.010347138
0.0099903427
0.0096572379
0.0093439771
0.0090506458
0.0087734598
0.0085133127
0.0082663349
0.0080341568
0.0078127071
0.0076043174
0.0074046208
0.0072166283
0.0070356056
0.0068652359
0.0067003518
0.0065453128
0.0063944636
0.0062528506
0.0061142721
0.0059844917
0.0058566964
0.0057374061
0.0056191282
0.0055091886
0.0053993504
0.0052977814
0.0051954616
0.0051014142
0.0050058242
0.0049185564
0.0048290129
0.0047478821
0.0046637826
0.0045882352
0.0045090402
0.0044386006
0.0043638292
0.004298078
0.0042273082
0.0041658689
0.0040987329
0.0040412668
0.0039774345
0.0039236492
0.0038628125
0.0038124605
0.0037543328
0.0037071932
0.0036515303
0.003607377
0.0035539973
0.0035125817
0.0034613638
0.0034224339
0.0033732665
0.0033366321
0.0032893395
0.0032549247
0.0032092582
0.0031770403
0.0031327897
0.0031026756
0.0030597428
0.0030315783
0.0029898887
0.0029635644
0.0029230054
0.0028984284
0.0028589684
0.0028359094
0.0027975268
0.00277601
0.0027380214
0.0027216186
0.0026692621
0.054775675
0.047087603
0.041212706
0.036587894
0.032858934
0.029792461
0.027229056
0.025055986
0.02319185
0.021575841
0.020162489
0.018916088
0.017809545
0.016820373
0.015931705
0.015128454
0.01439987
0.013735189
0.013127559
0.012568815
0.012054736
0.011578726
0.011138451
0.010728239
0.010347188
0.0099901317
0.0096573095
0.0093437804
0.0090507462
0.0087732849
0.0085134488
0.0082661883
0.008034334
0.0078125928
0.0076045383
0.0074045394
0.0072168924
0.0070355537
0.0068655403
0.006700323
0.0065456517
0.0063944502
0.0062532154
0.0061142685
0.0059848713
0.0058567004
0.0057377887
0.0056191397
0.0055095648
0.0053993677
0.005298148
0.0051954787
0.0051017755
0.0050058309
0.0049189205
0.0048290005
0.0047482535
0.0046637504
0.0045886098
0.0045089957
0.0044389703
0.0043637799
0.004298439
0.0042272547
0.0041662252
0.0040986707
0.0040416217
0.0039773662
0.0039239937
0.0038627553
0.0038127736
0.0037543076
0.0037074624
0.0036515357
0.0036076248
0.0035539881
0.0035128753
0.0034612594
0.0034228528
0.0033730097
0.0033371918
0.0032889692
0.003255538
0.0032088853
0.0031776109
0.003132464
0.0031032105
0.003059419
0.0030321276
0.0029895397
0.0029641274
0.0029226422
0.0028990321
0.0028584784
0.0028367535
0.002796957
0.0027770012
0.0027386656
0.0027171184
0.0026745913
0.054775677
0.0470876
0.041212702
0.036587886
0.032858919
0.029792447
0.027229028
0.025055959
0.023191808
0.0215758
0.020162434
0.01891603
0.017809475
0.016820302
0.015931619
0.015128371
0.01439977
0.013735093
0.013127452
0.012568711
0.012054623
0.01157862
0.011138338
0.010728137
0.010347085
0.0099900393
0.0096572225
0.0093437093
0.009050684
0.008773242
0.0085134222
0.0082661816
0.0080343471
0.0078126291
0.0076045959
0.0074046178
0.0072169942
0.0070356735
0.0068656799
0.0067004764
0.0065458234
0.0063946291
0.0062534079
0.0061144647
0.0059850775
0.0058569046
0.0057379998
0.0056193473
0.0055097758
0.0053995725
0.0052983551
0.0051956795
0.0051019764
0.0050060245
0.0049191144
0.0048291876
0.0047484394
0.0046639295
0.0045887885
0.0045091683
0.0044391414
0.0043639452
0.0042986035
0.0042274142
0.0041663832
0.0040988239
0.004041774
0.0039775145
0.0039241406
0.0038628983
0.0038129155
0.0037544464
0.0037075999
0.0036516701
0.0036077578
0.0035541187
0.0035130048
0.0034613863
0.0034229787
0.0033731331
0.0033373147
0.0032890896
0.0032556576
0.0032090026
0.0031777277
0.0031325789
0.0031033246
0.0030595311
0.0030322391
0.0029896495
0.0029642366
0.0029227498
0.0028991389
0.0028585837
0.0028368582
0.0027970603
0.0027771038
0.0027387671
0.0027172186
0.0026746902
0.054775657
0.047087623
0.04121267
0.03658791
0.032858869
0.029792468
0.027228955
0.025055976
0.023191712
0.021575809
0.020162311
0.018916031
0.017809326
0.016820295
0.015931443
0.015128358
0.014399569
0.013735076
0.013127229
0.012568693
0.012054383
0.011578607
0.011138088
0.010728134
0.010346833
0.0099900541
0.0096569803
0.0093437516
0.0090504621
0.0087733221
0.0085132311
0.008266309
0.0080341953
0.0078128105
0.0076044878
0.0074048557
0.0072169288
0.0070359657
0.0068656509
0.0067008165
0.0065458209
0.0063950067
0.0062534224
0.0061148668
0.0059851026
0.0058573169
0.0057380327
0.0056197569
0.0055098151
0.0053999718
0.0052983967
0.0051960688
0.0051020115
0.0050064107
0.0049191327
0.0048295781
0.004748436
0.0046643247
0.0045887672
0.0045095612
0.0044391112
0.0043643291
0.0042985691
0.0042277895
0.0041663415
0.0040991961
0.0040417225
0.0039778818
0.0039240894
0.0038632444
0.0038128862
0.0037547513
0.0037076058
0.0036519358
0.0036077772
0.0035543911
0.0035129707
0.0034617465
0.0034228121
0.0033736388
0.0033370006
0.0032897022
0.0032552837
0.0032096116
0.0031773906
0.0031331348
0.0031030176
0.0030600797
0.0030319123
0.0029902179
0.002963891
0.0029233273
0.0028987478
0.0028592832
0.002836222
0.002797835
0.0027763161
0.0027383232
0.0027219185
0.0026695565
0.054775671
0.047087599
0.041212691
0.03658787
0.03285889
0.029792405
0.027228973
0.025055888
0.02319172
0.021575695
0.020162307
0.018915889
0.017809312
0.016820123
0.015931421
0.015128156
0.014399539
0.013734849
0.013127191
0.012568444
0.012054344
0.011578339
0.011138054
0.010727858
0.010346809
0.009989782
0.0096569781
0.009343493
0.0090504942
0.0087730922
0.0085133078
0.0082661192
0.0080343295
0.0078126681
0.0076046845
0.007404766
0.0072171886
0.0070359226
0.0068659696
0.0067008116
0.0065461865
0.0063950275
0.006253823
0.0061149026
0.0059855208
0.0058573624
0.0057384548
0.0056198079
0.0055102289
0.005400027
0.0052987984
0.00519612
0.0051024053
0.0050064494
0.0049195265
0.0048295946
0.0047488347
0.0046643199
0.004589167
0.0045095415
0.0044395046
0.0043643036
0.0042989521
0.0042277578
0.0041667186
0.0040991549
0.0040420971
0.003977833
0.0039244525
0.0038632061
0.0038132172
0.0037547436
0.003707892
0.0036519581
0.0036080415
0.0035543979
0.0035132799
0.0034616577
0.0034232462
0.0033733974
0.0033375746
0.0032893469
0.003255911
0.0032092534
0.003177975
0.0031328232
0.0031035661
0.0030597698
0.0030324751
0.0029898827
0.0029644674
0.0029229777
0.0028993648
0.0028588067
0.0028370793
0.0027972785
0.0027773205
0.0027389806
0.0027174312
0.002674899
0.054775654
0.047087618
0.041212658
0.036587891
0.032858837
0.029792424
0.027228894
0.025055898
0.023191613
0.021575692
0.020162172
0.018915873
0.017809145
0.016820095
0.01593122
0.015128116
0.014399307
0.013734797
0.013126932
0.012568384
0.01205406
0.011578277
0.011137753
0.0107278
0.010346504
0.0099897366
0.0096566803
0.0093434758
0.0090502184
0.0087731161
0.0085130713
0.0082661994
0.0080341434
0.0078128171
0.0076045578
0.0074049868
0.0072171215
0.0070362144
0.0068659529
0.0067011632
0.0065462085
0.0063954249
0.0062538676
0.0061153288
0.0059855791
0.005857799
0.0057385196
0.0056202414
0.005510298
0.0054004474
0.0052988667
0.0051965289
0.0051024641
0.0050068524
0.0049195661
0.0048300004
0.0047488502
0.0046647283
0.004589163
0.0045099471
0.00443949
0.0043646987
0.004298932
0.0042281441
0.0041666901
0.004099537
0.0040420579
0.0039782102
0.0039244128
0.0038635614
0.0038131986
0.0037550577
0.0037079081
0.0036522325
0.0036080701
0.0035546789
0.003513255
0.0034620259
0.0034230884
0.0033739105
0.0033372694
0.0032899667
0.0032555456
0.0032098694
0.0031776459
0.0031333862
0.0031032667
0.003060325
0.0030321556
0.0029904576
0.0029641288
0.0029235615
0.0028989803
0.0028595124
0.0028364495
0.0027980592
0.0027765387
0.0027385426
0.0027221366
0.0026697707
0.054775671
0.047087592
0.041212679
0.036587847
0.032858857
0.029792353
0.027228907
0.025055798
0.023191616
0.021575562
0.020162159
0.01891571
0.017809116
0.016819895
0.015931177
0.01512788
0.014399249
0.013734527
0.013126859
0.012568083
0.012053978
0.01157795
0.011137667
0.010727458
0.010346421
0.0099893931
0.0096566143
0.0093431448
0.0090501862
0.0087728181
0.008513089
0.0082659526
0.0080342303
0.0078126344
0.0076047245
0.0074048766
0.0072173705
0.0070361709
0.0068662783
0.0067011744
0.0065465932
0.0063954724
0.0062542945
0.006115396
0.0059860263
0.0058578766
0.0057389701
0.0056203228
0.0055107384
0.0054005303
0.0052992926
0.005196605
0.0051028797
0.0050069134
0.0049199797
0.0048300371
0.004749267
0.0046647419
0.0045895796
0.0045099444
0.004439899
0.0043646889
0.0042993299
0.0042281272
0.0041670813
0.0040995099
0.0040424461
0.0039781749
0.003924789
0.0038635361
0.0038135424
0.0037550627
0.0037082066
0.0036522671
0.0036083464
0.0035546976
0.0035135759
0.0034619487
0.0034235339
0.0033736802
0.0033378547
0.0032896222
0.0032561839
0.0032095217
0.0031782409
0.003133085
0.0031038256
0.0030600253
0.0030327285
0.0029901322
0.002964715
0.0029232216
0.002899607
0.0028590454
0.0028373162
0.002797512
0.0027775524
0.0027392093
0.0027176581
0.0026751227
0.054775671
0.047087587
0.041212672
0.036587833
0.032858837
0.029792326
0.027228868
0.02505575
0.023191553
0.021575489
0.020162073
0.018915608
0.017809003
0.016819765
0.015931033
0.015127722
0.014399075
0.013734339
0.013126659
0.012567867
0.012053753
0.011577714
0.011137424
0.010727207
0.010346172
0.0099891412
0.0096563731
0.0093429113
0.0090499722
0.0087726224
0.008512927
0.0082658174
0.0080341393
0.0078125804
0.0076047204
0.0074049112
0.0072174568
0.0070362927
0.006866444
0.0067013668
0.0065468211
0.0063957141
0.0062545599
0.0061156659
0.0059863107
0.0058581561
0.0057392574
0.0056206018
0.0055110198
0.0054008003
0.005299563
0.0051968643
0.0051031371
0.0050071593
0.0049202243
0.0048302711
0.004749499
0.0046649636
0.0045898003
0.0045101561
0.004440109
0.0043648906
0.0042995306
0.0042283209
0.0041672734
0.0040996953
0.0040426307
0.0039783538
0.0039249667
0.0038637083
0.0038137135
0.0037552296
0.003708372
0.0036524285
0.0036085061
0.0035548542
0.0035137311
0.0034621003
0.0034236844
0.0033738271
0.0033380013
0.0032897649
0.0032563262
0.0032096604
0.0031783792
0.0031332201
0.00310396
0.0030601568
0.0030328593
0.0029902604
0.0029648424
0.0029233466
0.002899731
0.0028591672
0.0028374373
0.002797631
0.0027776705
0.0027393258
0.0027177729
0.0026752361
0.054775665
0.047087586
0.041212663
0.03658782
0.032858816
0.029792295
0.027228829
0.025055697
0.023191489
0.02157541
0.020161978
0.018915501
0.017808877
0.016819625
0.015930876
0.015127546
0.014398884
0.013734131
0.013126433
0.012567628
0.012053498
0.011577445
0.011137145
0.010726919
0.010345878
0.0099888477
0.0096560828
0.0093426299
0.0090497082
0.0087723807
0.0085127146
0.0082656429
0.0080340079
0.0078124966
0.0076046882
0.0074049334
0.0072175297
0.0070364158
0.0068666116
0.0067015739
0.0065470581
0.0063959778
0.0062548408
0.0061159593
0.0059866098
0.0058584597
0.0057395592
0.0056209008
0.0055113134
0.005401089
0.0052998439
0.0051971381
0.0051034037
0.0050074193
0.0049204764
0.0048305166
0.004749738
0.004665197
0.0045900273
0.0045103776
0.0044403256
0.0043651028
0.0042997378
0.0042285237
0.0041674725
0.0040998908
0.0040428225
0.003978542
0.0039251518
0.0038638906
0.0038138929
0.0037554059
0.0037085459
0.0036525999
0.0036086754
0.0035550208
0.0035138956
0.0034622626
0.003423845
0.0033739853
0.0033381577
0.0032899191
0.003256479
0.0032098111
0.0031785284
0.0031333672
0.0031041058
0.0030603007
0.0030330019
0.0029904011
0.0029649819
0.0029234842
0.0028998676
0.002859302
0.0028375711
0.0027977629
0.0027778016
0.0027394551
0.0027179012
0.0026753627
0.054775667
0.047087581
0.041212654
0.036587808