/*--------------------------------*- C++ -*----------------------------------*\
| =========                 |                                                 |
| \\      /  F ield         | OpenFOAM: The Open Source CFD Toolbox           |
|  \\    /   O peration     | Version:  2406                                  |
|   \\  /    A nd           | Website:  www.openfoam.com                      |
|    \\/     M anipulation  |                                                 |
\*---------------------------------------------------------------------------*/
FoamFile
{
    version     2.0;
    format      ascii;
    arch        "LSB;label=32;scalar=64";
    class       volScalarField;
    location    "600";
    object      nut;
}
// * * * * * * * * * * * * * * * * * * * * * * * * * * * * * * * * * * * * * //

dimensions      [0 2 -1 0 0 0 0];

internalField   nonuniform List<scalar> 
16045
(
0.00014889149
0.00014712817
0.00014558651
0.00014422024
0.00014299488
0.00014188628
0.00014087397
0.00013994483
0.00013908488
0.00013828729
0.00013754135
0.00013684401
0.00013618634
0.00013556786
0.00013498031
0.00013442552
0.0001338949
0.00013339242
0.00013290911
0.00013245022
0.00013200671
0.00013158496
0.00013117512
0.00013078533
0.00013040466
0.00013004231
0.00012968711
0.00012934902
0.00012901582
0.00012869918
0.00012838577
0.00012808784
0.00012779197
0.00012751118
0.0001272308
0.00012696508
0.00012669916
0.00012644705
0.00012619374
0.00012595416
0.00012571282
0.0001254841
0.00012525355
0.00012503529
0.00012481464
0.00012460538
0.00012439407
0.00012419367
0.00012399052
0.00012379788
0.00012360286
0.00012341766
0.00012322969
0.000123051
0.00012287048
0.00012269777
0.0001225237
0.00012235637
0.00012218908
0.00012202685
0.00012186516
0.00012170769
0.00012155199
0.00012139896
0.00012124844
0.00012109915
0.00012095442
0.00012080874
0.00012066883
0.00012052653
0.00012039118
0.00012025308
0.00012012119
0.00011998672
0.00011985874
0.00011972714
0.00011960474
0.00011947265
0.0001193585
0.00011922358
0.00011911941
0.00011898122
0.00011888461
0.00011874643
0.00011865409
0.00011851837
0.00011842913
0.00011829449
0.00011821032
0.00011807537
0.00011799671
0.00011786115
0.0001177884
0.00011764908
0.00011758918
0.00011744223
0.00011739359
0.0001172722
0.00011709338
0.00011709734
0.00014889149
0.00014712817
0.00014558651
0.00014422023
0.00014299487
0.00014188627
0.00014087396
0.00013994481
0.00013908486
0.00013828726
0.00013754132
0.00013684398
0.0001361863
0.00013556783
0.00013498027
0.00013442548
0.00013389485
0.00013339238
0.00013290907
0.00013245018
0.00013200667
0.00013158492
0.00013117507
0.00013078528
0.00013040461
0.00013004227
0.00012968706
0.00012934898
0.00012901578
0.00012869914
0.00012838574
0.00012808781
0.00012779194
0.00012751115
0.00012723078
0.00012696506
0.00012669914
0.00012644703
0.00012619373
0.00012595415
0.00012571281
0.00012548409
0.00012525355
0.00012503529
0.00012481465
0.00012460539
0.00012439408
0.00012419368
0.00012399054
0.0001237979
0.00012360287
0.00012341768
0.00012322971
0.00012305102
0.0001228705
0.00012269779
0.00012252372
0.00012235639
0.0001221891
0.00012202686
0.00012186518
0.00012170771
0.00012155201
0.00012139897
0.00012124846
0.00012109916
0.00012095443
0.00012080875
0.00012066884
0.00012052655
0.0001203912
0.0001202531
0.00012012122
0.00011998675
0.00011985877
0.00011972717
0.00011960477
0.00011947269
0.00011935854
0.00011922363
0.00011911946
0.00011898127
0.00011888466
0.00011874649
0.00011865415
0.00011851843
0.0001184292
0.00011829457
0.00011821039
0.00011807545
0.00011799679
0.00011786123
0.00011778848
0.00011764917
0.00011758926
0.00011744232
0.00011739368
0.00011727229
0.00011709347
0.00011709743
0.00014889148
0.00014712819
0.00014558649
0.00014422025
0.00014299485
0.00014188627
0.00014087396
0.00013994478
0.00013908488
0.00013828723
0.00013754132
0.00013684399
0.00013618626
0.00013556786
0.00013498025
0.00013442544
0.0001338949
0.00013339233
0.00013290905
0.00013245023
0.0001320066
0.00013158491
0.00013117512
0.0001307852
0.0001304046
0.00013004233
0.00012968698
0.00012934895
0.00012901588
0.00012869907
0.00012838568
0.00012808791
0.00012779193
0.00012751105
0.00012723088
0.00012696513
0.00012669903
0.00012644706
0.00012619389
0.0001259541
0.00012571274
0.00012548425
0.00012525365
0.00012503518
0.00012481468
0.0001246056
0.0001243941
0.00012419357
0.00012399066
0.0001237981
0.00012360283
0.0001234176
0.00012322989
0.0001230512
0.00012287042
0.00012269773
0.00012252393
0.00012235656
0.00012218901
0.0001220268
0.00012186539
0.0001217079
0.00012155194
0.00012139889
0.00012124863
0.00012109938
0.00012095441
0.00012080865
0.00012066895
0.00012052679
0.00012039126
0.00012025299
0.00012012124
0.00011998697
0.00011985893
0.00011972711
0.00011960471
0.00011947282
0.00011935875
0.00011922369
0.00011911939
0.00011898128
0.00011888484
0.00011874665
0.00011865417
0.00011851839
0.00011842926
0.00011829472
0.00011821051
0.00011807548
0.00011799679
0.0001178613
0.0001177886
0.00011764927
0.00011758932
0.00011744236
0.00011739374
0.00011727237
0.00011709355
0.00011709752
0.00014889149
0.00014712818
0.0001455865
0.00014422023
0.00014299486
0.00014188627
0.00014087394
0.0001399448
0.00013908485
0.00013828725
0.0001375413
0.00013684396
0.00013618628
0.0001355678
0.00013498024
0.00013442544
0.00013389482
0.00013339234
0.00013290903
0.00013245014
0.00013200663
0.00013158488
0.00013117503
0.00013078525
0.00013040458
0.00013004223
0.00012968704
0.00012934895
0.00012901576
0.00012869913
0.00012838573
0.0001280878
0.00012779195
0.00012751117
0.0001272308
0.00012696509
0.00012669919
0.00012644708
0.00012619379
0.00012595422
0.00012571289
0.00012548417
0.00012525364
0.0001250354
0.00012481475
0.00012460549
0.00012439421
0.00012419381
0.00012399066
0.00012379803
0.00012360302
0.00012341782
0.00012322984
0.00012305117
0.00012287066
0.00012269794
0.00012252387
0.00012235654
0.00012218926
0.00012202702
0.00012186534
0.00012170787
0.00012155218
0.00012139914
0.00012124862
0.00012109932
0.00012095461
0.00012080893
0.00012066901
0.00012052671
0.00012039138
0.00012025328
0.00012012138
0.00011998691
0.00011985894
0.00011972734
0.00011960494
0.00011947285
0.00011935871
0.0001192238
0.00011911964
0.00011898144
0.00011888483
0.00011874666
0.00011865434
0.00011851861
0.00011842938
0.00011829474
0.00011821058
0.00011807564
0.00011799698
0.00011786142
0.00011778867
0.00011764937
0.00011758947
0.00011744253
0.00011739389
0.00011727251
0.00011709369
0.00011709765
0.00014889148
0.00014712819
0.00014558649
0.00014422025
0.00014299485
0.00014188627
0.00014087395
0.00013994477
0.00013908487
0.00013828722
0.0001375413
0.00013684397
0.00013618623
0.00013556783
0.00013498021
0.0001344254
0.00013389486
0.00013339229
0.000132909
0.00013245019
0.00013200656
0.00013158487
0.00013117509
0.00013078516
0.00013040457
0.00013004231
0.00012968696
0.00012934893
0.00012901587
0.00012869907
0.00012838569
0.00012808793
0.00012779196
0.00012751108
0.00012723093
0.00012696519
0.0001266991
0.00012644714
0.00012619399
0.00012595421
0.00012571286
0.00012548438
0.00012525379
0.00012503533
0.00012481484
0.00012460576
0.00012439427
0.00012419374
0.00012399084
0.00012379828
0.00012360302
0.00012341779
0.00012323008
0.0001230514
0.00012287062
0.00012269793
0.00012252413
0.00012235676
0.00012218922
0.00012202701
0.00012186559
0.0001217081
0.00012155215
0.00012139909
0.00012124884
0.00012109958
0.00012095462
0.00012080884
0.00012066915
0.00012052698
0.00012039147
0.00012025319
0.00012012143
0.00011998716
0.00011985912
0.00011972731
0.0001196049
0.00011947301
0.00011935894
0.00011922388
0.00011911959
0.00011898147
0.00011888503
0.00011874684
0.00011865437
0.00011851859
0.00011842945
0.00011829492
0.00011821072
0.00011807568
0.000117997
0.00011786151
0.00011778882
0.00011764949
0.00011758955
0.0001174426
0.00011739397
0.00011727261
0.00011709379
0.00011709776
0.00014889149
0.00014712818
0.0001455865
0.00014422023
0.00014299485
0.00014188626
0.00014087394
0.00013994479
0.00013908483
0.00013828724
0.00013754128
0.00013684394
0.00013618625
0.00013556778
0.00013498021
0.00013442541
0.00013389479
0.00013339231
0.00013290899
0.00013245011
0.0001320066
0.00013158484
0.000131175
0.00013078522
0.00013040456
0.00013004222
0.00012968703
0.00012934894
0.00012901577
0.00012869914
0.00012838576
0.00012808784
0.000127792
0.00012751123
0.00012723088
0.00012696518
0.0001266993
0.00012644719
0.00012619393
0.00012595436
0.00012571305
0.00012548434
0.00012525383
0.00012503559
0.00012481496
0.00012460571
0.00012439443
0.00012419403
0.0001239909
0.00012379827
0.00012360326
0.00012341806
0.0001232301
0.00012305142
0.00012287091
0.00012269819
0.00012252413
0.0001223568
0.00012218952
0.00012202728
0.0001218656
0.00012170813
0.00012155243
0.00012139939
0.00012124887
0.00012109958
0.00012095486
0.00012080917
0.00012066926
0.00012052695
0.00012039162
0.00012025351
0.00012012162
0.00011998714
0.00011985917
0.00011972757
0.00011960516
0.00011947307
0.00011935892
0.00011922401
0.00011911985
0.00011898164
0.00011888504
0.00011874686
0.00011865452
0.0001185188
0.00011842956
0.00011829493
0.00011821076
0.00011807582
0.00011799716
0.0001178616
0.00011778885
0.00011764955
0.00011758965
0.00011744271
0.00011739407
0.00011727269
0.00011709387
0.00011709784
0.00014889148
0.00014712818
0.0001455865
0.00014422024
0.00014299485
0.00014188627
0.00014087393
0.00013994479
0.00013908482
0.00013828724
0.00013754126
0.00013684394
0.00013618623
0.00013556778
0.00013498018
0.00013442542
0.00013389475
0.00013339231
0.00013290895
0.00013245011
0.00013200656
0.00013158485
0.00013117497
0.00013078523
0.00013040452
0.00013004224
0.00012968701
0.00012934897
0.00012901576
0.00012869919
0.00012838576
0.00012808789
0.00012779203
0.00012751129
0.00012723092
0.00012696527
0.00012669935
0.00012644729
0.00012619401
0.00012595448
0.00012571315
0.00012548447
0.00012525394
0.00012503572
0.00012481508
0.00012460585
0.00012439456
0.00012419418
0.00012399104
0.00012379842
0.00012360341
0.00012341823
0.00012323025
0.00012305159
0.00012287106
0.00012269836
0.00012252429
0.00012235697
0.00012218968
0.00012202745
0.00012186576
0.00012170831
0.0001215526
0.00012139957
0.00012124904
0.00012109976
0.00012095503
0.00012080936
0.00012066943
0.00012052715
0.0001203918
0.00012025371
0.00012012181
0.00011998734
0.00011985937
0.00011972777
0.00011960536
0.00011947328
0.00011935912
0.00011922422
0.00011912004
0.00011898185
0.00011888522
0.00011874706
0.00011865471
0.000118519
0.00011842974
0.00011829512
0.00011821093
0.000118076
0.00011799733
0.00011786177
0.00011778901
0.00011764971
0.0001175898
0.00011744286
0.00011739422
0.00011727283
0.00011709402
0.00011709796
0.00014889143
0.00014712826
0.00014558639
0.00014422038
0.00014299468
0.00014188648
0.00014087367
0.00013994509
0.00013908446
0.00013828764
0.00013754078
0.00013684446
0.00013618561
0.00013556844
0.00013497941
0.00013442623
0.0001338938
0.00013339331
0.00013290782
0.0001324513
0.00013200523
0.00013158623
0.00013117345
0.00013078682
0.00013040281
0.00013004402
0.00012968512
0.00012935096
0.00012901369
0.00012870138
0.00012838351
0.00012809031
0.00012778958
0.00012751394
0.00012722828
0.00012696816
0.0001266965
0.00012645046
0.00012619091
0.00012595795
0.00012570978
0.00012548826
0.00012525029
0.0001250398
0.00012481122
0.00012461011
0.00012439061
0.0001241985
0.00012398709
0.00012380272
0.00012359948
0.00012342258
0.00012322618
0.0001230562
0.00012286663
0.00012270344
0.00012251935
0.00012236254
0.00012218431
0.00012203335
0.00012186018
0.00012171432
0.00012154694
0.00012140571
0.00012124318
0.00012110617
0.00012094889
0.00012081597
0.0001206633
0.00012053343
0.00012038636
0.00012025899
0.00012011751
0.00011999161
0.00011985555
0.00011973251
0.00011959976
0.0001194813
0.00011934888
0.00011923772
0.00011910441
0.00011899966
0.00011886716
0.00011876525
0.00011863774
0.00011853569
0.00011841365
0.000118312
0.00011819383
0.00011809413
0.00011797922
0.00011788074
0.00011776878
0.00011767419
0.00011755909
0.00011747109
0.00011735659
0.00011724952
0.00011729224
0.00011686888
0.00014889143
0.00014712826
0.00014558639
0.00014422037
0.00014299468
0.00014188647
0.00014087367
0.00013994508
0.00013908446
0.00013828762
0.00013754078
0.00013684444
0.00013618561
0.00013556841
0.0001349794
0.0001344262
0.0001338938
0.00013339327
0.00013290782
0.00013245125
0.00013200523
0.00013158619
0.00013117345
0.00013078678
0.00013040283
0.00013004399
0.00012968514
0.00012935095
0.00012901372
0.00012870139
0.00012838356
0.00012809033
0.00012778965
0.00012751399
0.00012722837
0.00012696824
0.00012669661
0.00012645057
0.00012619104
0.00012595808
0.00012570992
0.00012548841
0.00012525046
0.00012503997
0.0001248114
0.0001246103
0.0001243908
0.0001241987
0.00012398729
0.00012380294
0.00012359968
0.0001234228
0.00012322639
0.00012305642
0.00012286684
0.00012270367
0.00012251956
0.00012236277
0.00012218452
0.00012203357
0.0001218604
0.00012171455
0.00012154715
0.00012140593
0.00012124339
0.00012110639
0.0001209491
0.00012081618
0.0001206635
0.00012053364
0.00012038656
0.0001202592
0.00012011772
0.00011999182
0.00011985575
0.00011973272
0.00011959996
0.00011948151
0.00011934908
0.00011923792
0.0001191046
0.00011899986
0.00011886736
0.00011876546
0.00011863794
0.00011853589
0.00011841385
0.0001183122
0.00011819403
0.00011809433
0.00011797942
0.00011788095
0.00011776898
0.0001176744
0.0001175593
0.00011747129
0.00011735679
0.00011724972
0.00011729246
0.00011686909
0.00014889148
0.00014712818
0.00014558649
0.00014422023
0.00014299484
0.00014188626
0.00014087392
0.00013994477
0.0001390848
0.00013828721
0.00013754123
0.0001368439
0.00013618619
0.00013556772
0.00013498013
0.00013442534
0.0001338947
0.00013339223
0.0001329089
0.00013245003
0.0001320065
0.00013158477
0.00013117493
0.00013078516
0.0001304045
0.00013004219
0.00012968702
0.00012934896
0.00012901581
0.00012869923
0.00012838587
0.000128088
0.00012779219
0.00012751147
0.00012723116
0.00012696552
0.00012669966
0.00012644763
0.00012619439
0.00012595489
0.0001257136
0.00012548495
0.00012525445
0.00012503627
0.00012481564
0.00012460645
0.00012439516
0.00012419481
0.00012399167
0.00012379908
0.00012360406
0.0001234189
0.00012323091
0.00012305227
0.00012287174
0.00012269906
0.00012252496
0.00012235767
0.00012219036
0.00012202814
0.00012186644
0.00012170899
0.00012155327
0.00012140025
0.00012124971
0.00012110044
0.00012095569
0.00012081002
0.00012067009
0.0001205278
0.00012039245
0.00012025435
0.00012012245
0.00011998798
0.00011986
0.00011972839
0.00011960598
0.0001194739
0.00011935974
0.00011922484
0.00011912065
0.00011898246
0.00011888583
0.00011874767
0.00011865532
0.0001185196
0.00011843035
0.00011829572
0.00011821154
0.0001180766
0.00011799793
0.00011786237
0.00011778962
0.00011765031
0.0001175904
0.00011744346
0.00011739482
0.00011727342
0.00011709462
0.00011709856
0.00014889147
0.0001471282
0.00014558648
0.00014422025
0.00014299483
0.00014188627
0.00014087391
0.00013994476
0.00013908481
0.00013828718
0.00013754121
0.00013684391
0.00013618612
0.00013556776
0.00013498008
0.00013442531
0.0001338947
0.00013339218
0.00013290884
0.00013245008
0.00013200639
0.00013158477
0.00013117494
0.00013078509
0.00013040446
0.00013004228
0.00012968691
0.00012934897
0.0001290159
0.00012869921
0.00012838583
0.00012808817
0.00012779222
0.00012751145
0.00012723134
0.0001269657
0.00012669965
0.00012644778
0.00012619468
0.00012595498
0.00012571368
0.00012548527
0.00012525472
0.00012503632
0.00012481586
0.00012460684
0.00012439538
0.00012419489
0.00012399201
0.00012379947
0.00012360422
0.00012341902
0.00012323132
0.00012305265
0.00012287188
0.0001226992
0.0001225254
0.00012235804
0.00012219049
0.00012202829
0.00012186686
0.00012170939
0.00012155342
0.00012140037
0.00012125011
0.00012110086
0.00012095588
0.00012081012
0.00012067042
0.00012052825
0.00012039272
0.00012025444
0.00012012268
0.0001199884
0.00011986036
0.00011972854
0.00011960613
0.00011947423
0.00011936015
0.00011922509
0.00011912078
0.00011898267
0.0001188862
0.00011874802
0.00011865553
0.00011851975
0.0001184306
0.00011829607
0.00011821185
0.00011807681
0.00011799812
0.00011786262
0.00011778992
0.00011765059
0.00011759064
0.00011744368
0.00011739506
0.00011727368
0.00011709486
0.00011709882
0.00014889143
0.00014712827
0.00014558639
0.00014422038
0.00014299466
0.00014188647
0.00014087364
0.00013994507
0.00013908442
0.00013828761
0.00013754072
0.00013684441
0.00013618553
0.00013556837
0.00013497931
0.00013442614
0.00013389369
0.0001333932
0.0001329077
0.00013245118
0.00013200511
0.00013158612
0.00013117334
0.00013078672
0.00013040273
0.00013004397
0.00012968509
0.00012935096
0.00012901373
0.00012870146
0.00012838364
0.00012809049
0.00012778982
0.00012751423
0.00012722864
0.00012696858
0.00012669699
0.000126451
0.00012619152
0.0001259586
0.0001257105
0.00012548902
0.00012525112
0.00012504065
0.00012481213
0.00012461104
0.00012439158
0.00012419947
0.00012398811
0.00012380374
0.00012360053
0.00012342362
0.00012322725
0.00012305726
0.00012286771
0.00012270451
0.00012252043
0.00012236362
0.0001221854
0.00012203442
0.00012186127
0.00012171539
0.00012154801
0.00012140677
0.00012124425
0.00012110722
0.00012094995
0.00012081701
0.00012066435
0.00012053447
0.0001203874
0.00012026001
0.00012011854
0.00011999263
0.00011985657
0.00011973352
0.00011960077
0.0001194823
0.00011934988
0.00011923871
0.0001191054
0.00011900063
0.00011886815
0.00011876623
0.00011863872
0.00011853666
0.00011841463
0.00011831296
0.00011819481
0.00011809509
0.00011798019
0.0001178817
0.00011776974
0.00011767514
0.00011756005
0.00011747203
0.00011735753
0.00011725045
0.00011729318
0.00011686981
0.00014889143
0.00014712827
0.00014558639
0.00014422037
0.00014299467
0.00014188646
0.00014087365
0.00013994505
0.00013908442
0.00013828758
0.00013754072
0.00013684437
0.00013618553
0.00013556832
0.0001349793
0.00013442608
0.00013389369
0.00013339313
0.00013290769
0.00013245111
0.00013200509
0.00013158604
0.00013117333
0.00013078665
0.00013040273
0.00013004391
0.00012968509
0.00012935092
0.00012901376
0.00012870145
0.00012838368
0.00012809052
0.0001277899
0.0001275143
0.00012722877
0.0001269687
0.00012669714
0.00012645117
0.00012619171
0.00012595882
0.00012571072
0.00012548928
0.00012525137
0.00012504094
0.0001248124
0.00012461136
0.00012439187
0.00012419981
0.00012398842
0.0001238041
0.00012360083
0.00012342397
0.00012322757
0.00012305762
0.00012286802
0.00012270486
0.00012252076
0.00012236397
0.00012218571
0.00012203476
0.00012186159
0.00012171574
0.00012154832
0.00012140711
0.00012124458
0.00012110757
0.00012095026
0.00012081734
0.00012066467
0.00012053481
0.00012038772
0.00012026034
0.00012011887
0.00011999297
0.0001198569
0.00011973385
0.00011960109
0.00011948264
0.00011935021
0.00011923904
0.00011910571
0.00011900097
0.00011886847
0.00011876656
0.00011863903
0.00011853698
0.00011841494
0.00011831329
0.00011819511
0.0001180954
0.00011798049
0.00011788201
0.00011777004
0.00011767544
0.00011756034
0.00011747233
0.00011735782
0.00011725074
0.00011729347
0.00011687011
0.00014889147
0.0001471282
0.00014558647
0.00014422026
0.00014299481
0.00014188626
0.00014087389
0.00013994474
0.00013908477
0.00013828715
0.00013754115
0.00013684386
0.00013618603
0.00013556769
0.00013497996
0.00013442522
0.00013389457
0.00013339207
0.00013290868
0.00013244996
0.00013200622
0.00013158465
0.00013117478
0.00013078498
0.00013040432
0.0001300422
0.00012968681
0.00012934895
0.00012901587
0.00012869926
0.00012838588
0.00012808833
0.00012779238
0.00012751172
0.00012723163
0.0001269661
0.00012670007
0.00012644832
0.00012619523
0.00012595564
0.00012571435
0.00012548604
0.00012525549
0.00012503718
0.00012481672
0.00012460777
0.00012439628
0.00012419587
0.00012399296
0.00012380049
0.00012360521
0.00012342006
0.00012323232
0.0001230537
0.00012287288
0.00012270026
0.00012252641
0.0001223591
0.0001221915
0.00012202934
0.00012186787
0.00012171043
0.00012155442
0.00012140141
0.00012125111
0.00012110189
0.00012095688
0.00012081115
0.00012067141
0.00012052927
0.00012039371
0.00012025545
0.00012012368
0.00011998941
0.00011986135
0.00011972954
0.00011960712
0.00011947523
0.00011936113
0.00011922609
0.00011912174
0.00011898367
0.00011888716
0.00011874901
0.00011865648
0.00011852072
0.00011843156
0.00011829703
0.00011821279
0.00011807777
0.00011799906
0.00011786357
0.00011779085
0.00011765152
0.00011759156
0.0001174446
0.00011739597
0.00011727458
0.00011709578
0.00011709971
0.00014889142
0.00014712828
0.00014558637
0.00014422039
0.00014299465
0.00014188646
0.00014087364
0.00013994502
0.00013908442
0.00013828752
0.00013754069
0.00013684434
0.00013618543
0.00013556829
0.00013497921
0.00013442597
0.00013389364
0.00013339298
0.00013290758
0.00013245104
0.00013200492
0.00013158592
0.00013117328
0.00013078645
0.00013040264
0.00013004388
0.00012968496
0.00012935084
0.00012901384
0.00012870137
0.00012838369
0.00012809069
0.00012779003
0.00012751435
0.0001272291
0.00012696901
0.00012669737
0.00012645153
0.0001261923
0.00012595919
0.00012571117
0.00012548993
0.00012525207
0.00012504138
0.00012481309
0.00012461216
0.00012439258
0.00012420033
0.00012398926
0.00012380494
0.00012360152
0.00012342456
0.0001232285
0.00012305846
0.00012286869
0.00012270547
0.0001225217
0.0001223648
0.00012218636
0.00012203537
0.00012186251
0.00012171658
0.00012154897
0.00012140768
0.00012124545
0.00012110842
0.00012095093
0.00012081788
0.00012066546
0.00012053568
0.00012038845
0.00012026087
0.00012011955
0.00011999382
0.0001198577
0.00011973443
0.00011960169
0.0001194834
0.00011935108
0.00011923971
0.00011910632
0.0001190016
0.00011886931
0.00011876734
0.00011863972
0.00011853757
0.00011841567
0.00011831407
0.0001181959
0.00011809606
0.00011798116
0.00011788271
0.00011777083
0.00011767618
0.00011756106
0.00011747301
0.00011735854
0.00011725146
0.00011729419
0.00011687084
0.00014889147
0.0001471282
0.00014558647
0.00014422025
0.00014299481
0.00014188624
0.00014087388
0.00013994471
0.00013908475
0.0001382871
0.00013754112
0.00013684378
0.00013618599
0.00013556758
0.00013497991
0.00013442509
0.00013389449
0.00013339192
0.00013290859
0.00013244978
0.00013200613
0.00013158446
0.00013117467
0.0001307848
0.00013040422
0.00013004203
0.00012968674
0.00012934882
0.00012901584
0.0001286992
0.00012838593
0.00012808835
0.00012779252
0.00012751186
0.00012723187
0.00012696636
0.00012670043
0.0001264487
0.00012619569
0.00012595614
0.00012571491
0.00012548664
0.00012525613
0.00012503787
0.00012481742
0.00012460851
0.00012439702
0.00012419665
0.00012399373
0.00012380128
0.00012360599
0.00012342086
0.0001232331
0.00012305449
0.00012287366
0.00012270105
0.00012252718
0.00012235987
0.00012219226
0.00012203011
0.00012186863
0.00012171118
0.00012155517
0.00012140216
0.00012125185
0.00012110263
0.00012095762
0.00012081188
0.00012067215
0.00012053
0.00012039445
0.00012025619
0.00012012442
0.00011999015
0.00011986209
0.00011973028
0.00011960787
0.00011947598
0.00011936188
0.00011922683
0.00011912251
0.00011898442
0.00011888793
0.00011874976
0.00011865725
0.00011852148
0.00011843232
0.00011829779
0.00011821356
0.00011807852
0.00011799983
0.00011786432
0.00011779161
0.00011765227
0.00011759231
0.00011744535
0.00011739672
0.00011727532
0.00011709652
0.00011710045
0.00014889148
0.00014712819
0.00014558648
0.00014422024
0.0001429948
0.00014188625
0.00014087385
0.00013994473
0.00013908469
0.00013828712
0.00013754106
0.00013684376
0.00013618596
0.00013556753
0.00013497983
0.00013442509
0.00013389433
0.00013339192
0.00013290848
0.00013244968
0.00013200605
0.0001315844
0.00013117447
0.00013078481
0.00013040408
0.00013004191
0.0001296867
0.00012934879
0.00012901567
0.00012869925
0.00012838595
0.00012808827
0.00012779258
0.00012751205
0.00012723189
0.00012696645
0.00012670076
0.00012644889
0.00012619585
0.00012595648
0.00012571537
0.00012548683
0.0001252565
0.00012503837
0.00012481788
0.00012460873
0.00012439755
0.0001241972
0.00012399415
0.00012380155
0.0001236066
0.0001234214
0.00012323348
0.0001230548
0.0001228743
0.00012270156
0.00012252752
0.00012236017
0.00012219289
0.00012203062
0.00012186895
0.00012171147
0.00012155576
0.0001214027
0.00012125218
0.00012110288
0.00012095814
0.00012081244
0.00012067253
0.00012053022
0.00012039488
0.00012025675
0.00012012487
0.00011999038
0.00011986242
0.00011973079
0.00011960839
0.0001194763
0.00011936215
0.00011922723
0.00011912305
0.00011898485
0.00011888823
0.00011875006
0.00011865771
0.00011852198
0.00011843274
0.0001182981
0.00011821392
0.00011807897
0.0001180003
0.00011786473
0.00011779197
0.00011765265
0.00011759274
0.00011744578
0.00011739713
0.00011727573
0.00011709691
0.00011710085
0.00014889142
0.00014712827
0.00014558638
0.00014422037
0.00014299465
0.00014188643
0.0001408736
0.000139945
0.00013908434
0.00013828748
0.00013754059
0.00013684422
0.00013618535
0.00013556811
0.00013497907
0.0001344258
0.00013389339
0.00013339279
0.00013290734
0.00013245071
0.00013200471
0.00013158561
0.00013117294
0.00013078621
0.00013040235
0.00013004351
0.00012968479
0.00012935061
0.00012901359
0.00012870131
0.00012838371
0.0001280906
0.00012779019
0.00012751466
0.00012722935
0.00012696939
0.00012669806
0.00012645218
0.00012619295
0.00012596014
0.00012571224
0.00012549085
0.00012525314
0.00012504271
0.00012481434
0.00012461328
0.00012439393
0.00012420182
0.00012399054
0.00012380617
0.00012360301
0.00012342607
0.00012322975
0.00012305972
0.0001228702
0.00012270695
0.00012252292
0.00012236605
0.00012218786
0.00012203682
0.00012186371
0.00012171778
0.00012155042
0.00012140913
0.00012124665
0.00012110957
0.00012095232
0.00012081933
0.0001206667
0.00012053679
0.00012038974
0.00012026232
0.00012012087
0.00011999494
0.0001198589
0.00011973581
0.00011960308
0.00011948459
0.00011935221
0.00011924098
0.00011910772
0.0001190029
0.00011887048
0.0001187685
0.00011864104
0.00011853893
0.00011841694
0.00011831524
0.00011819712
0.00011809736
0.00011798249
0.00011788396
0.00011777204
0.0001176774
0.00011756233
0.00011747428
0.0001173598
0.0001172527
0.00011729542
0.00011687207
0.00014889146
0.00014712821
0.00014558646
0.00014422025
0.00014299479
0.00014188623
0.00014087383
0.00013994469
0.00013908466
0.00013828706
0.00013754099
0.00013684371
0.00013618582
0.00013556746
0.00013497969
0.00013442493
0.0001338942
0.00013339172
0.00013290825
0.00013244953
0.00013200574
0.00013158417
0.00013117425
0.00013078452
0.0001304038
0.00013004176
0.00012968637
0.0001293486
0.00012901555
0.0001286991
0.00012838578
0.0001280884
0.00012779259
0.00012751213
0.00012723216
0.00012696687
0.000126701
0.00012644944
0.00012619651
0.00012595713
0.00012571595
0.0001254878
0.00012525735
0.00012503919
0.00012481875
0.00012460992
0.00012439846
0.00012419813
0.00012399519
0.00012380279
0.00012360749
0.00012342237
0.00012323459
0.00012305601
0.00012287516
0.00012270254
0.00012252864
0.00012236136
0.00012219373
0.00012203157
0.00012187005
0.00012171263
0.0001215566
0.00012140359
0.00012125324
0.00012110404
0.00012095902
0.00012081328
0.00012067351
0.00012053138
0.00012039582
0.00012025756
0.00012012576
0.00011999149
0.00011986344
0.00011973163
0.00011960919
0.0001194773
0.00011936319
0.00011922817
0.00011912382
0.00011898574
0.00011888922
0.00011875108
0.00011865856
0.0001185228
0.00011843362
0.0001182991
0.00011821487
0.00011807984
0.00011800114
0.00011786563
0.00011779292
0.00011765359
0.00011759362
0.00011744666
0.00011739802
0.00011727662
0.00011709783
0.00011710175
0.00014889142
0.00014712827
0.00014558637
0.00014422037
0.00014299463
0.00014188642
0.00014087357
0.00013994497
0.00013908429
0.00013828743
0.00013754051
0.00013684414
0.00013618523
0.00013556799
0.00013497891
0.00013442564
0.0001338932
0.00013339259
0.0001329071
0.00013245047
0.00013200443
0.00013158533
0.00013117263
0.00013078591
0.00013040204
0.00013004321
0.0001296845
0.00012935035
0.00012901337
0.00012870113
0.0001283836
0.00012809055
0.00012779024
0.00012751478
0.0001272296
0.00012696972
0.00012669851
0.00012645271
0.00012619362
0.00012596085
0.00012571308
0.00012549173
0.00012525412
0.00012504369
0.00012481541
0.00012461434
0.00012439506
0.00012420291
0.0001239917
0.00012380729
0.00012360416
0.00012342718
0.0001232309
0.00012306084
0.00012287133
0.00012270804
0.00012252404
0.00012236714
0.00012218895
0.00012203788
0.00012186479
0.00012171884
0.00012155148
0.00012141016
0.0001212477
0.0001211106
0.00012095336
0.00012082034
0.00012066773
0.0001205378
0.00012039075
0.0001202633
0.00012012187
0.00011999593
0.00011985989
0.00011973679
0.00011960406
0.00011948556
0.00011935319
0.00011924194
0.00011910869
0.00011900385
0.00011887145
0.00011876946
0.00011864199
0.00011853987
0.0001184179
0.00011831619
0.00011819807
0.0001180983
0.00011798344
0.0001178849
0.00011777298
0.00011767834
0.00011756327
0.00011747521
0.00011736074
0.00011725362
0.00011729634
0.000116873
0.00014889146
0.0001471282
0.00014558646
0.00014422024
0.00014299478
0.00014188621
0.00014087381
0.00013994464
0.00013908463
0.00013828697
0.00013754094
0.00013684358
0.00013618573
0.00013556729
0.00013497955
0.0001344247
0.00013389404
0.00013339143
0.00013290803
0.00013244919
0.00013200547
0.00013158378
0.00013117396
0.00013078408
0.00013040349
0.00013004133
0.00012968605
0.00012934821
0.00012901529
0.00012869879
0.00012838563
0.00012808826
0.00012779259
0.00012751219
0.00012723239
0.00012696717
0.00012670145
0.00012645002
0.0001261972
0.00012595793
0.00012571684
0.00012548881
0.0001252584
0.00012504032
0.00012481992
0.00012461114
0.00012439967
0.00012419939
0.00012399646
0.00012380406
0.00012360875
0.00012342365
0.00012323586
0.00012305727
0.00012287641
0.0001227038
0.00012252989
0.00012236259
0.00012219495
0.0001220328
0.00012187128
0.00012171384
0.0001215578
0.00012140479
0.00012125445
0.00012110522
0.00012096019
0.00012081445
0.0001206747
0.00012053254
0.00012039698
0.00012025871
0.00012012692
0.00011999263
0.00011986458
0.00011973275
0.00011961033
0.00011947843
0.00011936432
0.00011922927
0.00011912493
0.00011898684
0.00011889034
0.00011875217
0.00011865966
0.00011852389
0.00011843473
0.00011830019
0.00011821596
0.00011808092
0.00011800222
0.00011786671
0.000117794
0.00011765466
0.0001175947