/*--------------------------------*- C++ -*----------------------------------*\
| =========                 |                                                 |
| \\      /  F ield         | OpenFOAM: The Open Source CFD Toolbox           |
|  \\    /   O peration     | Version:  2406                                  |
|   \\  /    A nd           | Website:  www.openfoam.com                      |
|    \\/     M anipulation  |                                                 |
\*---------------------------------------------------------------------------*/
FoamFile
{
    version     2.0;
    format      ascii;
    arch        "LSB;label=32;scalar=64";
    class       volScalarField;
    location    "600";
    object      omega;
}
// * * * * * * * * * * * * * * * * * * * * * * * * * * * * * * * * * * * * * //

dimensions      [0 0 -1 0 0 0 0];

internalField   nonuniform List<scalar> 
16045
(
367.88996
320.04487
283.08089
253.69514
229.79188
209.97542
193.28819
179.04381
166.74831
156.02452
146.59523
138.23437
130.77706
124.07743
118.03409
112.54601
107.5507
102.97305
98.775778
94.899451
91.32386
87.998899
84.917188
82.033419
79.350389
76.82527
74.468734
72.238787
70.153254
68.169111
66.310738
64.533594
62.867689
61.266106
59.764835
58.313658
56.954049
55.632554
54.396132
53.187076
52.058159
50.947464
49.913161
48.888582
47.937988
46.989593
46.11334
45.232264
44.422608
43.601572
42.851527
42.084008
41.387933
40.668435
40.021024
39.344654
38.741703
38.104228
37.541642
36.939304
36.41389
35.843392
35.351941
34.810321
34.350366
33.835044
33.404042
32.912614
32.508623
32.039073
31.660074
31.2104
30.854813
30.423434
30.089681
29.67491
29.361651
28.962215
28.668244
28.282748
28.006892
27.634246
27.375587
27.014682
26.772216
26.422062
26.195036
25.854769
25.642381
25.311111
25.112687
24.789694
24.60462
24.289159
24.116837
23.808254
23.64818
23.345864
23.197549
22.8337
367.88996
320.04483
283.0808
253.695
229.7917
209.9752
193.28794
179.04353
166.74799
156.02419
146.59488
138.234
130.77668
124.07703
118.03368
112.5456
107.55028
102.97262
98.775349
94.899018
91.323433
87.998471
84.916765
82.033003
79.34998
76.824868
74.468346
72.23841
70.152891
68.168764
66.310409
64.53328
62.867396
61.265833
59.76458
58.313424
56.953837
55.632362
54.39596
53.186925
52.058028
50.94735
49.913065
48.888504
47.937925
46.989545
46.113307
45.232244
44.4226
43.601574
42.851539
42.08403
41.387961
40.66847
40.021066
39.344702
38.741755
38.104283
37.541702
36.939368
36.413956
35.84346
35.352011
34.810393
34.350439
33.835118
33.404117
32.91269
32.508699
32.039149
31.66015
31.210477
30.854891
30.42351
30.089758
29.674987
29.361728
28.962291
28.668319
28.282823
28.006968
27.634321
27.375662
27.014756
26.77229
26.422136
26.195109
25.854841
25.642453
25.311183
25.112759
24.789765
24.604691
24.28923
24.116907
23.808324
23.648249
23.345933
23.197618
22.833767
367.88997
320.0448
283.0808
253.69495
229.79167
209.97513
193.28787
179.04347
166.74789
156.02413
146.59478
138.23391
130.77661
124.07691
118.03361
112.54552
107.55015
102.97256
98.775265
94.898904
91.323395
87.998396
84.916671
82.032993
79.349936
76.824801
74.468374
72.238415
70.15286
68.168828
66.310481
64.533294
62.86749
61.265979
59.764657
58.313535
56.954042
55.632521
54.396086
53.187148
52.058272
50.947517
49.913269
48.888793
47.938167
46.989732
46.113569
45.23255
44.422827
43.601781
42.85183
42.084327
41.388174
40.668684
40.02136
39.344984
38.741955
38.104492
37.541984
36.939636
36.414146
35.843653
35.352273
34.810652
34.350625
33.83529
33.404351
32.912942
32.508891
32.039306
31.660351
31.210716
30.855094
30.423662
30.089924
29.6752
29.36194
28.962455
28.668464
28.283
28.007173
27.634504
27.375808
27.014903
26.772466
26.422322
26.195273
25.854982
25.642601
25.311349
25.112927
24.789918
24.604833
24.289373
24.117059
23.808476
23.648397
23.346076
23.197759
22.833906
367.88996
320.04481
283.08077
253.69493
229.79161
209.97507
193.28779
179.04334
166.7478
156.02397
146.59464
138.23374
130.7764
124.07674
118.03338
112.54529
107.54997
102.97231
98.775038
94.89871
91.323131
87.998181
84.91649
82.032742
79.349746
76.824658
74.468163
72.23826
70.152777
68.168681
66.310368
64.53328
62.867434
61.265912
59.764705
58.313587
56.954037
55.632604
54.396239
53.187233
52.05837
50.947725
49.913464
48.888923
47.938369
46.990007
46.113779
45.232729
44.423099
43.60208
42.852046
42.084542
41.388479
40.668987
40.021579
39.345215
38.74227
38.104792
37.542205
36.939867
36.414454
35.843951
35.352494
34.810872
34.350916
33.835588
33.404579
32.913148
32.509155
32.039599
31.660592
31.210913
30.855324
30.42394
30.090181
29.675403
29.362141
28.962701
28.668725
28.283222
28.007363
27.634713
27.376052
27.01514
26.772669
26.422511
26.195483
25.855211
25.642819
25.311544
25.113117
24.79012
24.605044
24.289578
24.117253
23.808665
23.648589
23.346269
23.197952
22.834097
367.88997
320.0448
283.08077
253.69489
229.79158
209.975
193.28772
179.04328
166.74768
156.02389
146.59452
138.23361
130.7763
124.07658
118.03326
112.54516
107.54979
102.9722
98.774903
94.898544
91.323048
87.998063
84.916357
82.032701
79.349674
76.82457
74.468181
72.238263
70.152753
68.168768
66.310473
64.533336
62.867586
61.266129
59.764862
58.313792
56.954351
55.63288
54.396493
53.187599
52.058764
50.948046
49.913831
48.889385
47.938785
46.990371
46.114227
45.233224
44.423513
43.602475
42.85253
42.085032
41.388881
40.66939
40.022064
39.345686
38.742654
38.105184
37.542671
36.940317
36.414821
35.844319
35.352932
34.811304
34.351271
33.835926
33.404979
32.913563
32.509505
32.039911
31.66095
31.211307
30.855679
30.424239
30.090495
29.675764
29.362498
28.963006
28.669009
28.283538
28.007706
27.635031
27.376331
27.015418
26.772977
26.422827
26.195774
25.855477
25.643091
25.311833
25.113409
24.790394
24.605305
24.28984
24.117522
23.808934
23.648852
23.346526
23.198207
22.834347
367.88996
320.0448
283.08075
253.69489
229.79153
209.97497
193.28766
179.04319
166.74762
156.02376
146.59441
138.23349
130.77613
124.07645
118.03308
112.54498
107.54965
102.97199
98.774726
94.898404
91.322842
87.99791
84.916244
82.032525
79.349566
76.824515
74.468068
72.238214
70.152785
68.168747
66.310495
64.533468
62.867687
61.266229
59.765086
58.31403
56.954543
55.633166
54.396855
53.187902
52.059085
50.948479
49.914254
48.889747
47.939218
46.990877
46.114669
45.233633
44.42401
43.602996
42.852968
42.085464
41.389398
40.669901
40.022491
39.346119
38.743164
38.105677
37.543082
36.940734
36.415309
35.844795
35.35333
34.811695
34.351728
33.836388
33.40537
32.913927
32.509924
32.040356
31.661342
31.211652
30.856055
30.424659
30.090893
29.676106
29.362836
28.963386
28.669403
28.283892
28.008027
27.635368
27.376699
27.01578
26.773304
26.423138
26.196104
25.855824
25.643428
25.312146
25.113714
24.79071
24.605629
24.290156
24.117827
23.809233
23.649153
23.346826
23.198506
22.834643
367.88996
320.0448
283.08074
253.69486
229.7915
209.97492
193.2876
179.04312
166.74753
156.02365
146.59429
138.23335
130.77599
124.0763
118.03292
112.54481
107.54948
102.97182
98.774562
94.898243
91.322691
87.997771
84.916121
82.032421
79.349487
76.824461
74.468044
72.238222
70.152829
68.168828
66.310616
64.533629
62.867891
61.266475
59.765374
58.314358
56.954911
55.633572
54.397295
53.188374
52.059587
50.949007
49.914805
48.890317
47.939805
46.991477
46.115279
45.23425
44.424632
43.603621
42.853594
42.086089
41.39002
40.67052
40.023104
39.346726
38.743765
38.106271
37.543669
36.941313
36.415881
35.845358
35.353886
34.812243
34.352268
33.83692
33.405895
32.914444
32.510433
32.040858
31.661838
31.212141
30.856537
30.425134
30.091363
29.676569
29.363294
28.963837
28.66985
28.284332
28.008462
27.635797
27.377125
27.016199
26.77372
26.423548
26.196511
25.856225
25.643826
25.312538
25.114104
24.791094
24.606011
24.290533
24.118201
23.809603
23.64952
23.347189
23.198866
22.834998
367.88996
320.0448
283.08072
253.69484
229.79146
209.97488
193.28754
179.04304
166.74743
156.02354
146.59416
138.23321
130.77583
124.07613
118.03275
112.54463
107.5493
102.97163
98.774372
94.898059
91.322515
87.997606
84.915975
82.032293
79.349385
76.824387
74.468002
72.238216
70.152864
68.168903
66.310737
64.533797
62.868105
61.266736
59.765683
58.314713
56.95531
55.634014
54.397778
53.188892
52.060137
50.949588
49.91541
48.890943
47.940449
46.992136
46.115947
45.234926
44.425313
43.604305
42.854276
42.086769
41.390698
40.671193
40.02377
39.347386
38.744418
38.106916
37.544305
36.94194
36.416501
35.845969
35.354487
34.812835
34.352854
33.837496
33.406463
32.915003
32.510987
32.041404
31.662376
31.21267
30.857061
30.425651
30.091874
29.677072
29.363792
28.964329
28.670337
28.284812
28.008938
27.636267
27.377591
27.016659
26.774175
26.423998
26.196957
25.856666
25.644264
25.31297
25.114533
24.791518
24.606432
24.290949
24.118615
23.810011
23.649926
23.34759
23.199265
22.835391
367.88996
320.0448
283.08071
253.69482
229.79144
209.97483
193.28747
179.04295
166.74733
156.02342
146.59403
138.23306
130.77566
124.07595
118.03255
112.54442
107.54909
102.97142
98.774164
94.897854
91.322322
87.997426
84.915814
82.032155
79.349276
76.824309
74.467964
72.238218
70.152912
68.169
66.310886
64.533999
62.868363
61.267051
59.766053
58.315138
56.955788
55.634541
54.398351
53.189508
52.060792
50.950275
49.916127
48.891685
47.941211
46.992913
46.116736
45.235724
44.426116
43.605109
42.85508
42.087571
41.391495
40.671982
40.024554
39.348161
38.745184
38.107671
37.545052
36.942676
36.417226
35.846683
35.355192
34.813529
34.353537
33.838169
33.407128
32.915658
32.511632
32.042039
31.663003
31.213288
30.857672
30.426252
30.092468
29.677658
29.364372
28.9649
28.670902
28.285369
28.00949
27.636811
27.37813
27.017191
26.774702
26.424518
26.197472
25.857175
25.644768
25.313468
25.115027
24.792006
24.606917
24.291427
24.11909
23.81048
23.650392
23.34805
23.199722
22.835841
367.88996
320.04478
283.0807
253.69479
229.7914
209.97477
193.2874
179.04286
166.74722
156.02329
146.59387
138.23288
130.77548
124.07574
118.03234
112.54419
107.54885
102.97118
98.773924
94.897617
91.322097
87.997212
84.91562
82.031986
79.349137
76.824204
74.467903
72.238202
70.152946
68.16909
66.311035
64.534207
62.868636
61.267387
59.766451
58.315598
56.956308
55.635117
54.398979
53.190185
52.061512
50.951033
49.916917
48.892503
47.94205
46.993768
46.117604
45.2366
44.426996
43.605989
42.85596
42.088445
41.392363
40.672842
40.025405
39.349002
38.746014
38.10849
37.54586
36.943471
36.41801
35.847454
35.355952
34.814277
34.354274
33.838894
33.407843
32.916362
32.512326
32.042722
31.663678
31.213953
30.858328
30.426898
30.093107
29.678288
29.364995
28.965514
28.671509
28.285968
28.010083
27.637396
27.378709
27.017763
26.775269
26.425078
26.198028
25.857723
25.645312
25.314005
25.11556
24.792532
24.607439
24.291943
24.119602
23.810987
23.650895
23.348547
23.200216
22.836328
367.88997
320.04477
283.0807
253.69476
229.79138
209.9747
193.28733
179.04277
166.74707
156.02316
146.59369
138.23268
130.77529
124.07548
118.0321
112.54394
107.54855
102.97093
98.773646
94.897306
91.321868
87.996951
84.915354
82.031821
79.348957
76.82403
74.467856
72.238166
70.152918
68.169205
66.311206
64.534371
62.868937
61.267794
59.766844
58.316081
56.956938
55.63575
54.399626
53.190973
52.062356
50.951831
49.917781
48.893476
47.94299
46.994668
46.118591
45.237635
44.427952
43.606926
42.856979
42.089465
41.393291
40.673765
40.026401
39.349974
38.746895
38.10937
37.546804
36.94439
36.418841
35.848278
35.356837
34.815148
34.355063
33.83966
33.408663
32.91719
32.513085
32.043437
31.664431
31.214737
30.859068
30.427579
30.093797
29.679018
29.365718
28.966181
28.672152
28.286638
28.010775
27.638059
27.379331
27.018379
26.775911
26.425723
26.198646
25.858313
25.645905
25.314611
25.116166
24.793117
24.608009
24.29251
24.120174
23.811554
23.651456
23.349098
23.200763
22.836866
367.88996
320.04477
283.08067
253.69475
229.79132
209.97465
193.28724
179.04264
166.74696
156.02297
146.59351
138.23247
130.77502
124.07524
118.03181
112.54363
107.54827
102.97057
98.773319
94.897012
91.321509
87.996651
84.915102
82.031517
79.34874
76.823886
74.467679
72.238085
70.152951
68.169224
66.311312
64.534631
62.869212
61.268119
59.76734
58.316638
56.957495
55.636444
54.400435
53.191759
52.063191
50.952804
49.918765
48.894416
47.944013
46.99577
46.119633
45.238647
44.42905
43.608043
42.858008
42.090482
41.394383
40.674841
40.027382
39.350952
38.747938
38.110385
37.547727
36.945309
36.41982
35.849234
35.357706
34.816002
34.355974
33.840565
33.40949
32.917983
32.513925
32.044295
31.665231
31.215482
30.859838
30.428386
30.094576
29.679736
29.366427
28.966926
28.672906
28.287345
28.011447
27.638741
27.380041
27.019077
26.776572
26.426363
26.199302
25.858981
25.646559
25.315237
25.116782
24.793739
24.608637
24.293126
24.120777
23.812147
23.652048
23.349686
23.201348
22.837443
367.88995
320.04476
283.08066
253.69471
229.79127
209.97457
193.28713
179.04252
166.7468
156.02278
146.5933
138.23222
130.77475
124.07494
118.03148
112.54328
107.5479
102.9702
98.772934
94.896623
91.32113
87.996278
84.914749
82.031195
79.34845
76.823639
74.467492
72.237955
70.152889
68.169242
66.311413
64.534816
62.869494
61.268494
59.767805
58.317198
56.958148
55.637179
54.401246
53.192646
52.06414
50.953805
49.919814
48.895505
47.945129
46.996906
46.120788
45.239811
44.430214
43.609207
42.859169
42.091634
41.395521
40.675967
40.028497
39.35205
38.749018
38.111448
37.548777
36.94634
36.420833
35.85023
35.35869
34.816968
34.356923
33.841498
33.410413
32.91889
32.514818
32.045173
31.666099
31.216338
30.860681
30.429214
30.095396
29.680546
29.367227
28.967713
28.673684
28.288115
28.012209
27.639492
27.380784
27.01981
26.777299
26.427081
26.200013
25.859682
25.647255
25.315925
25.117465
24.794413
24.609305
24.293787
24.121434
23.812795
23.652692
23.350322
23.201981
22.838066
367.88996
320.04473
283.08066
253.69465
229.79122
209.97447
193.28702
179.04238
166.7466
156.02259
146.59303
138.23193
130.77446
124.07456
118.03112
112.54289
107.54745
102.96979
98.772482
94.896131
91.320712
87.995822
84.914286
82.030832
79.348076
76.823279
74.467268
72.237759
70.15272
68.169237
66.311489
64.534917
62.869763
61.268901
59.768234
58.317752
56.958879
55.637946
54.402059
53.193623
52.065194
50.954835
49.920924
48.896733
47.946334
46.998078
46.122046
45.241115
44.431442
43.610411
42.860449
42.092909
41.396702
40.677137
40.02973
39.353254
38.750128
38.112551
37.549937
36.947469
36.421871
35.851256
35.359769
34.818029
34.3579
33.842449
33.411412
32.919892
32.51575
32.046059
31.667019
31.217283
30.861582
30.430055
30.096243
29.681429
29.368101
28.968529
28.674475
28.288929
28.013043
27.640295
27.381546
27.020564
26.778078
26.427861
26.200765
25.860404
25.647979
25.316659
25.118198
24.795123
24.610001
24.294477
24.122128
23.813483
23.653372
23.350992
23.202645
22.83872
367.88995
320.04473
283.08064
253.69462
229.79116
209.97438
193.2869
179.04222
166.7464
156.02235
146.59276
138.23162
130.7741
124.07417
118.03069
112.54243
107.54696
102.96927
98.771952
94.895589
91.320166
87.99528
84.913763
82.030329
79.347613
76.822862
74.466909
72.23747
70.152517
68.169124
66.31148
64.53502
62.86998
61.269239
59.768696
58.318334
56.959576
55.638754
54.40297
53.194625
52.066278
50.95599
49.922136
48.89799
47.947628
46.999398
46.123381
45.242458
44.432787
43.611753
42.861781
42.094228
41.398008
40.678425
40.030999
39.354503
38.751357
38.113759
37.551124
36.948634
36.423018
35.852382
35.360876
34.819116
34.358971
33.843502
33.412448
32.92091
32.516754
32.047047
31.667993
31.218241
30.862528
30.430987
30.097165
29.682335
29.368997
28.969413
28.67535
28.289791
28.013896
27.641136
27.38238
27.021387
26.778892
26.428664
26.201562
25.861191
25.64876
25.31743
25.118962
24.795878
24.61075
24.295218
24.122863
23.81421
23.654094
23.351705
23.203354
22.839418
367.88995
320.04472
283.08061
253.69458
229.79109
209.97428
193.28676
179.04204
166.74618
156.02208
146.59244
138.23125
130.77369
124.07372
118.0302
112.54189
107.54639
102.96867
98.771332
94.894951
91.319518
87.994633
84.913128
82.029713
79.347033
76.822328
74.466437
72.237073
70.15221
68.168916
66.311387
64.535051
62.870143
61.269537
59.769133
58.318909
56.960284
55.639589
54.403921
53.195683
52.067426
50.957218
49.923428
48.899334
47.949009
47.000807
46.124806
45.243892
44.43422
43.613181
42.863199
42.09563
41.399392
40.679789
40.032342
39.355822
38.752654
38.115033
37.552376
36.949862
36.424225
35.853566
35.362041
34.820258
34.360095
33.844606
33.413535
32.921978
32.517806
32.048082
31.669014
31.219246
30.86352
30.431963
30.098129
29.683285
29.369935
28.970337
28.676265
28.290692
28.014788
27.642016
27.383251
27.022246
26.779744
26.429504
26.202395
25.862013
25.649575
25.318234
25.11976
24.796666
24.611532
24.29599
24.12363
23.814966
23.654846
23.352447
23.204092
22.840145
367.88994
320.04472
283.08057
253.69454
229.791
209.97417
193.2866
179.04182
166.74595
156.02176
146.59211
138.23085
130.77321
124.07324
118.02962
112.54128
107.54577
102.96795
98.770614
94.894233
91.318716
87.993871
84.912394
82.028921
79.346325
76.821693
74.465787
72.236541
70.151821
68.168557
66.311167
64.535041
62.870215
61.269734
59.769574
58.319485
56.960938
55.640452
54.404959
53.196758
52.068601
50.958568
49.924819
48.900708
47.950481
47.002363
46.126307
45.245364
44.435771
43.614741
42.864662
42.097073
41.400896
40.681263
40.033713
39.35718
38.754065
38.116402
37.553646
36.95112
36.425533
35.854841
35.363223
34.82142
34.361305
33.845801
33.414649
32.923054
32.518923
32.049209
31.670079
31.220254
30.864549
30.433022
30.099157
29.68425
29.37089
28.971322
28.677255
28.291634
28.015693
27.642928
27.384187
27.023166
26.780625
26.430363
26.203267
25.862894
25.65044
25.319069
25.120585
24.797494
24.612364
24.296807
24.124433
23.815758
23.655636
23.35323
23.20487
22.840913
367.88994
320.0447
283.08054
253.69448
229.79091
209.97404
193.28643
179.0416
166.74567
156.02142
146.59171
138.23039
130.7727
124.07266
118.02899
112.54058
107.54503
102.96716
98.769779
94.893361
91.317824
87.992957
84.911479
82.028018
79.345448
76.820857
74.465018
72.23585
70.151231
68.168087
66.310836
64.534859
62.870203
61.269898
59.769916
58.320008
56.961637
55.641317
54.405977
53.197914
52.069876
50.959943
49.926273
48.902226
47.952043
47.003956
46.127915
45.246977
44.437381
43.61634
42.866244
42.098633
41.402433
40.682773
40.035196
39.358635
38.755492
38.1178
37.555018
36.952464
36.426852
35.856134
35.364493
34.822666
34.36253
33.847003
33.415833
32.924216
32.520068
32.050334
31.671188
31.221345
30.865626
30.434082
30.100204
29.68528
29.371908
28.972325
28.678247
28.292611
28.01666
27.643882
27.385131
27.024098
26.781548
26.431273
26.204169
25.863783
25.651322
25.319939
25.121448
24.798346
24.613209
24.297641
24.125261
23.816576
23.656448
23.354032
23.205667
22.841697
367.88995
320.04467
283.08052
253.6944
229.79082
209.97389
193.28623
179.04137
166.74534
156.02107
146.59126
138.22987
130.77215
124.07198
118.02829
112.53981
107.54415
102.96628
98.768824
94.892322
91.316814
87.991883
84.910365
82.026973
79.344385
76.819798
74.464093
72.234975
70.150413
68.16747
66.310364
64.534487
62.870074
61.270002
59.770145
58.32046
56.962364
55.642181
54.40697
53.199144
52.071249
50.961348
49.927791
48.903887
47.9537
47.005587
46.129629
45.248733
44.439054
43.617976
42.867939
42.100311
41.404004
40.684315
40.036786
39.360185
38.756937
38.119224
37.556486
36.953893
36.428183
35.857442
35.365846
34.823994
34.36377
33.848209
33.417079
32.925462
32.521241
32.051456
31.672338
31.222517
30.866751
30.435143
30.101267
29.686375
29.372992
28.973351
28.679244
28.293627
28.017694
27.644884
27.386091
27.025046
26.782517
26.432242
26.20511
25.864692
25.652231
25.320856
25.122363
24.799236
24.614084
24.298509
24.126132
23.817438
23.657302
23.354873
23.206503
22.84252
367.88993
320.04466
283.08047
253.69435
229.7907
209.97375
193.28603
179.04108
166.74502
156.02063
146.59079
138.22932
130.77148
124.07128
118.02748
112.53892
107.54323
102.96522
98.767726
94.891196
91.315576
87.990639
84.909125
82.025655
79.343117
76.818592
74.462873
72.233865
70.149462
68.166584
66.309649
64.534028
62.869771
61.269892
59.770349
58.320888
56.962955
55.643048
54.408083
53.200364
52.072613
50.962919
49.929436
48.905537
47.955449
47.007422
46.131412
45.25048
44.440863
43.619786
42.869648
42.101982
41.40572
40.685994
40.038357
39.361728
38.758519
38.120761
37.557922
36.955306
36.429635
35.85886
35.367171
34.82529
34.365106
33.84953
33.41832
32.926659
32.522472
32.052695
31.673517
31.223637
30.867885
30.436304
30.102398
29.687442
29.374045
28.974429
28.680327
28.294662
28.018691
27.645883
27.387112
27.026051
26.783484
26.433183
26.206061
25.86565
25.653174
25.321767
25.123262
24.800135
24.614986
24.299395
24.127003
23.818295
23.658157
23.355719
23.207344
22.843349
367.88993
320.04464
283.08044
253.69426
229.79061
209.97356
193.2858
179.04079
166.74463
156.02021
146.59024
138.2287
130.7708
124.07045
118.0266
112.53795
107.54213
102.96409
98.766483
94.889846
91.31423
87.989188
84.907613
82.024187
79.341599
76.817064
74.461472
72.232502
70.148165
68.165507
66.308739
64.533257
62.869299
61.269707
59.770353
58.32119
56.963597
55.643889
54.409117
53.201687
52.074114
50.964483
49.931139
48.907391
47.957301
47.009252
46.133322
45.252419
44.442709
43.621591
42.871501
42.103803
41.407426
40.687667
40.040068
39.363387
38.760069
38.122287
37.559486
36.956822
36.431052
35.860253
35.368605
34.826693
34.366421
33.850811
33.41964
32.927972
32.523711
32.053885
31.674734
31.224871
30.869072
30.437428
30.103526
29.688599
29.375188
28.975513
28.681384
28.295738
28.019782
27.646941
27.388128
27.027057
26.78451
26.434207
26.207057
25.866614
25.654138
25.322738
25.12423
24.801079
24.615914
24.300316
24.127927
23.819211
23.659063
23.356613
23.208232
22.844223
367.88992
320.04463
283.08038
253.69419
229.79047
209.97339
193.28555
179.04045
166.74425
156.01969
146.58968
138.22802
130.77
124.0696
118.0256
112.53685
107.54096
102.96276
98.765092
94.888382
91.312614
87.987544
84.905927
82.022385
79.339832
76.815324
74.459692
72.230835
70.146653
68.164064
66.307506
64.532323
62.868566
61.269242
59.770284
58.321418
56.96407
55.644727
54.410265
53.202993
52.075619
50.966234
49.932977
48.909246
47.959266
47.011298
46.135301
45.254357
44.444703
43.623568
42.873359
42.105618
41.409278
40.689466
40.041746
39.365036
38.761753
38.123914
37.561004
36.958317
36.432586
35.861742
35.369996
34.828056
34.367824
33.852192
33.420935
32.929225
32.524999
32.055177
31.675961
31.226038
30.870256
30.438636
30.104699
29.689706
29.376284
28.976635
28.682507
28.296809
28.020814
27.647978
27.389186
27.028094
26.785507
26.435179
26.20804
25.867602
25.655109
25.323676
25.125156
24.802005
24.616842
24.301227
24.128822
23.820091
23.659941
23.35748
23.209095
22.845072
367.88992
320.04458
283.08035
253.69408
229.79034
209.97319
193.28527
179.04012
166.74379
156.01918
146.58904
138.22727
130.76919
124.06862
118.02453
112.53567
107.53961
102.96134
98.763538
94.886672
91.310864
87.985658
84.903927
82.020385
79.337754
76.813191
74.457655
72.228827
70.144701
68.162334
66.30598
64.53098
62.867574
61.268625
59.769952
58.321471
56.964564
55.645525
54.411333
53.204415
52.077282
50.968001
49.934895
48.911328
47.961357
47.013355
46.137418
45.256496
44.446741
43.62554
42.875361
42.107582
41.411119
40.691253
40.043559
39.366798
38.7634
38.125522
37.562643
36.959913
36.43408
35.863201
35.371491
34.829526
34.369205
33.853532
33.422309
32.930596
32.526301
32.056423
31.677228
31.227325
30.8715
30.439817
30.105878
29.690912
29.37748
28.977775
28.683618
28.297933
28.021956
27.64909
27.390256
27.029151
26.786582
26.436254
26.209089
25.868619
25.656123
25.324696
25.126175
24.803001
24.617821
24.302198
24.129795
23.821056
23.660898
23.358425
23.210033
22.845997
367.88991
320.04457
283.08028
253.69401
229.79018
209.97298
193.285
179.03973
166.74335
156.01859
146.58838
138.22649
130.76825
124.0676
118.02336
112.53434
107.5382
102.95973
98.761805
94.884835
91.308834
87.98353
84.901719
82.018014
79.335347
76.810774
74.455171
72.226406
70.142425
68.160145
66.304008
64.529351
62.866235
61.267639
59.769457
58.321411
56.964872
55.646295
54.412519
53.205862
52.078975
50.969973
49.936993
48.913458
47.963575
47.015644
46.139642
45.258654
44.448919
43.62769
42.87739
42.109539
41.413087
40.693167
40.045353
39.368538
38.765157
38.127227
37.564241
36.96147
36.435661
35.864744
35.372941
34.830935
34.370641
33.85495
33.423649
32.931887
32.527612
32.057739
31.678488
31.228523
30.872703
30.441038
30.107073
29.692045
29.378593
28.978905
28.68475
28.299021
28.023004
27.650133
27.391317
27.030195
26.78759
26.437233
26.210074
25.869606
25.657096
25.325638
25.127102
24.803924
24.618745
24.303106
24.130689
23.821934
23.661771
23.359286
23.210889
22.846839
367.8899
320.04454
283.08023
253.69391
229.79003
209.97275
193.28469
179.03934
166.74285
156.01799
146.58766
138.22564
130.76728
124.06648
118.0221
112.53293
107.53663
102.958
98.759911
94.882767
91.306614
87.981147
84.899188
82.015356
79.332581
76.807925
74.452296
72.223542
70.139635
68.157505
66.301595
64.527234
62.8645
61.266352
59.768661
58.321137
56.965118
55.647038
54.413699
53.207423
52.080838
50.972066
49.939239
48.915802
47.965964
47.018038
46.142012
45.260981
44.451191
43.629897
42.879531
42.111613
41.415095
40.69511
40.047239
39.370367
38.766934
38.128953
37.565925
36.963111
36.437264
35.866308
35.374475
34.832436
34.372114
33.856393
33.42507
32.933282
32.528985
32.059088
31.679819
31.229835
30.873998
30.442314
30.108333
29.693289
29.379825
28.980119
28.685952
28.300208
28.024181
27.651295
27.392468
27.031332
26.788717
26.438347
26.21118
25.870698
25.658181
25.326711
25.128169
24.804979
24.619793
24.304143
24.131719
23.822953
23.662784
23.36029
23.211887
22.847823
367.8899
320.04449
283.08019
253.69378
229.78988
209.9725
193.28437
179.03893
166.74231
156.01738
146.58689
138.22474
130.76626
124.06526
118.02077
112.53142
107.53491
102.95615
98.757846
94.880481
91.304198
87.978491
84.896332
82.01239
79.32942
76.804617
74.448983
72.220167
70.136271
68.154342
66.298646
64.524546
62.8623
61.264694
59.767506
58.320628
56.965296
55.647754
54.4149
53.209151
52.082913
50.97432
49.941686
48.918411
47.968551
47.020567
46.144566
45.263505
44.453568
43.632177
42.881805
42.113807
41.417135
40.69708
40.049211
39.372259
38.768695
38.130669
37.567656
36.964777
36.43882
35.867828
35.376019
34.833939
34.373521
33.857756
33.426461
32.934658
32.530283
32.060329
31.68108
31.231105
30.875216
30.443465
30.109482
29.694459
29.380977
28.981209
28.687012
28.301279
28.025262
27.652339
27.393468
27.032317
26.789718
26.439341
26.212142
25.871626
25.659105
25.327638
25.12909
24.805873
24.62067
24.305008
24.132585
23.823807
23.663628
23.361117
23.212707
22.848628
367.88989
320.04447
283.08012
253.69368
229.78971
209.97227
193.28404
179.0385
166.74179
156.0167
146.58611
138.22381
130.76516
124.06404
118.01933
112.5298
107.53313
102.95412
98.755626
94.878058
91.301493
87.97559
84.893221
82.008993
79.325865
76.800905
74.445079
72.216221
70.132371
68.15048
66.29502
64.521324
62.859503
61.262475
59.766049
58.319904
56.965265
55.648497
54.416303
53.211015
52.085174
50.976936
49.944445
48.921197
47.971398
47.023424
46.147297
45.266124
44.45616
43.634684
42.884151
42.11606
41.419373
40.69923
40.051228
39.374219
38.77066
38.132565
37.569443
36.966528
36.440591
35.869549
35.377649
34.835536
34.375145
33.859355
33.427982
32.936137
32.531787
32.061833
31.682525
31.232496
30.876619
30.444886
30.110873
29.695792
29.382296
28.982548
28.688351
28.302572
28.026521
27.653599
27.394744
27.033574
26.79094
26.440539
26.213348
25.872835
25.6603
25.328802
25.130243
24.807026
24.621823
24.306146
24.133708
23.824916
23.664734
23.362213
23.213798
22.849703
367.88989
320.04442
283.08007
253.69354
229.78955
209.97201
193.2837
179.03807
166.74121
156.01604
146.58528
138.22284
130.76406
124.06271
118.01786
112.52813
107.53121
102.95202
98.753256
94.875408
91.298638
87.972413
84.889753
82.005304
79.321865
76.796639
74.440681
72.21164
70.127705
68.145941
66.290668
64.517278
62.856054
61.259748
59.764082
58.31888
56.965225
55.649285
54.41782
53.213235
52.087851
50.979859
49.947567
48.924446
47.974582
47.026495
46.150326
45.269057
44.458895
43.637272
42.886682
42.118469
41.421604
40.701361
40.05333
39.376221
38.77252
38.134361
37.571236
36.968247
36.442195
35.871107
35.379219
34.837056
34.376569
33.860732
33.429375
32.937507
32.53308
32.063069
31.683772
31.233746
30.877817
30.446018
30.111998
29.696932
29.383416
28.983607
28.689379
28.303606
28.027562
27.654601
27.395703
27.034517
26.791894
26.441483
26.214263
25.873716
25.661175
25.329677
25.131111
24.807866
24.622646
24.306957
24.13452
23.825715
23.665522
23.362984
23.214561
22.85045
367.88988
320.04438
283.08001
253.69344
229.78937
209.97175
193.28336
179.03762
166.74065
156.01536
146.58444
138.22185
130.76291
124.06137
118.01633
112.52638
107.52923
102.94978
98.750771
94.872627
91.29555
87.96901
84.886016
82.00121
79.317447
76.791888
74.435636
72.206366
70.122304
68.140519
66.28542
64.512406
62.851778
61.256302
59.761655
58.31759
56.965086
55.650245
54.419715
53.215885
52.091033
50.983383
49.951248
48.928164
47.97825
47.030056
46.153753
45.272341
44.46204
43.640276
42.889557
42.121226
41.424259
40.703913
40.055794
39.378608
38.774839
38.136608
37.573425
36.970382
36.444284
35.873145
35.381213
34.83901
34.378491
33.862613
33.431221
32.939323
32.534871
32.064829
31.685506
31.235454
30.879506
30.447684
30.113641
29.69855
29.385019
28.985188
28.690943
28.305147
28.029086
27.656107
27.397196
27.035988
26.79335
26.442921
26.215691
25.875126
25.662573
25.331058
25.132482
24.809221
24.623991
24.308286
24.135839
23.827017
23.666815
23.364262
23.215831
22.851699
367.88987
320.04436
283.07994
253.69333
229.78919
209.9715
193.28303
179.03715
166.74011
156.01464
146.58361
138.22086
130.76172
124.06003
118.01476
112.52458
107.52722
102.94747
98.748181
94.869744
91.29228
87.965396
84.882029
81.996755
79.312604
76.786639
74.429932
72.200341
70.116066
68.13411
66.279129
64.506533
62.846527
61.252022
59.758701
58.316064
56.964962
55.651554
54.422216
53.21924
52.095005
50.987788