/*--------------------------------*- C++ -*----------------------------------*\
| =========                 |                                                 |
| \\      /  F ield         | OpenFOAM: The Open Source CFD Toolbox           |
|  \\    /   O peration     | Version:  2406                                  |
|   \\  /    A nd           | Website:  www.openfoam.com                      |
|    \\/     M anipulation  |                                                 |
\*---------------------------------------------------------------------------*/
FoamFile
{
    version     2.0;
    format      ascii;
    arch        "LSB;label=32;scalar=64";
    class       volScalarField;
    location    "600";
    object      p;
}
// * * * * * * * * * * * * * * * * * * * * * * * * * * * * * * * * * * * * * //

dimensions      [0 2 -2 0 0 0 0];

internalField   nonuniform List<scalar> 
16045
(
1.2799662
1.2760146
1.2684371
1.2577482
1.2442012
1.2277639
1.2083462
1.1859163
1.1604745
1.1320132
1.1005154
1.0659685
1.0283725
0.98774134
0.94410602
0.8975182
0.84805491
0.79582244
0.74096003
0.68364331
0.62408712
0.56254777
0.49932429
0.43475838
0.36923312
0.30316997
0.23702422
0.1712786
0.10643529
0.043006244
-0.018497772
-0.077578985
-0.13376493
-0.18662075
-0.23576044
-0.28085724
-0.32165167
-0.35795742
-0.3896645
-0.41673969
-0.4392241
-0.4572283
-0.47092521
-0.48054137
-0.48634702
-0.48864572
-0.48776385
-0.48404069
-0.47781927
-0.46943842
-0.45922599
-0.44749346
-0.4345318
-0.42060865
-0.40596655
-0.39082229
-0.37536686
-0.35976613
-0.34416188
-0.32867358
-0.31340009
-0.29842177
-0.28380234
-0.26959089
-0.25582355
-0.24252546
-0.22971211
-0.21739095
-0.20556262
-0.19422253
-0.18336199
-0.17296936
-0.16303032
-0.15352826
-0.14444437
-0.13575853
-0.12745032
-0.11950016
-0.11188936
-0.10459987
-0.097613218
-0.090910241
-0.084471292
-0.07827742
-0.072311241
-0.066557476
-0.061002261
-0.055632312
-0.050433872
-0.045392792
-0.040494884
-0.035727302
-0.031078434
-0.026540263
-0.022101571
-0.017767469
-0.013498175
-0.0094077972
-0.0051746859
-0.0020994285
1.2831478
1.2802015
1.2735373
1.263534
1.2505836
1.2347154
1.2158425
1.1939311
1.1689842
1.1409965
1.10995
1.0758292
1.0386295
0.99835935
0.95504286
0.90872377
0.85947023
0.8073791
0.75257969
0.69523768
0.63555824
0.57378881
0.5102207
0.44518972
0.3790752
0.3122978
0.24531509
0.17861572
0.11271149
0.048127834
-0.014607411
-0.074976072
-0.13248271
-0.18666751
-0.23711881
-0.28348415
-0.32547976
-0.36289721
-0.39560767
-0.42356289
-0.44679339
-0.46540366
-0.47956506
-0.48950675
-0.49550528
-0.49787357
-0.4969497
-0.49308624
-0.48664046
-0.47796561
-0.46740374
-0.45527977
-0.44189712
-0.42753453
-0.41244437
-0.39685174
-0.38095457
-0.36492425
-0.34890699
-0.33302542
-0.31738072
-0.30205458
-0.28711146
-0.27260052
-0.25855769
-0.24500739
-0.23196425
-0.21943443
-0.20741731
-0.19590687
-0.18489325
-0.17436351
-0.16430219
-0.15469125
-0.14551059
-0.13673875
-0.12835433
-0.12033679
-0.11266685
-0.10532568
-0.098294142
-0.091552154
-0.085079363
-0.078856097
-0.072864629
-0.067089292
-0.061516042
-0.056131152
-0.050920524
-0.045869428
-0.04096331
-0.036188805
-0.031534004
-0.026990396
-0.02254611
-0.018205598
-0.013925191
-0.0098188488
-0.0055239525
-0.0023399757
1.2890376
1.2864017
1.2799916
1.2701143
1.2572602
1.241503
1.2227462
1.2009449
1.1760996
1.1482032
1.1172333
1.0831679
1.0459956
1.0057174
0.96234894
0.91592559
0.86650665
0.8141802
0.75906725
0.70132592
0.64115506
0.57879751
0.51454226
0.4487254
0.38172981
0.31398313
0.24595377
0.17814503
0.11108709
0.04532709
-0.01858264
-0.080097663
-0.13869543
-0.19388952
-0.24524336
-0.29238269
-0.33500598
-0.37289226
-0.40590569
-0.43399703
-0.45720145
-0.47563341
-0.48947867
-0.49898424
-0.50444687
-0.50620086
-0.50460582
-0.50003509
-0.49286511
-0.48346628
-0.47219531
-0.45938922
-0.44536087
-0.43039604
-0.41475179
-0.39865592
-0.38230725
-0.36587673
-0.34950894
-0.33332415
-0.31742043
-0.30187599
-0.28675158
-0.27209271
-0.25793175
-0.24428967
-0.23117758
-0.21859834
-0.20654828
-0.19501898
-0.18399853
-0.17347229
-0.16342293
-0.15383055
-0.14467318
-0.13592804
-0.12757289
-0.11958696
-0.11195072
-0.10464491
-0.097649514
-0.090943579
-0.084506002
-0.078316954
-0.072358838
-0.066616375
-0.061075606
-0.055722688
-0.050543029
-0.045521473
-0.040643034
-0.035894219
-0.031262954
-0.0267406
-0.022314743
-0.017988671
-0.013717243
-0.0096105805
-0.0053208092
-0.0021780432
1.2972711
1.2947706
1.2886379
1.279093
1.2665992
1.2512298
1.2328783
1.2114865
1.1870467
1.1595453
1.1289519
1.0952356
1.0583742
1.0183579
0.97519052
0.92889443
0.87951568
0.82712877
0.77184141
0.71379911
0.65318947
0.59024607
0.52525135
0.45853838
0.39049119
0.32154328
0.2521742
0.18290389
0.11428462
0.046890697
-0.018694005
-0.081890185
-0.14213853
-0.19891555
-0.25174903
-0.30023229
-0.34403622
-0.38291832
-0.41672839
-0.44541023
-0.46899959
-0.48761837
-0.50146583
-0.51080724
-0.51596109
-0.5172854
-0.51516426
-0.50999503
-0.50217687
-0.49210074
-0.48014147
-0.46665139
-0.45195588
-0.43635055
-0.42009978
-0.40343635
-0.38656216
-0.3696496
-0.35284344
-0.33626303
-0.32000469
-0.30414435
-0.28874019
-0.27383507
-0.25945863
-0.24562889
-0.23235391
-0.2196336
-0.20746181
-0.19582819
-0.18471927
-0.17411867
-0.16400706
-0.15436227
-0.1451605
-0.13637783
-0.12799171
-0.11998129
-0.11232665
-0.10500749
-0.098002439
-0.091289246
-0.08484619
-0.078653456
-0.072693862
-0.066952345
-0.061414742
-0.056066524
-0.050892337
-0.045876396
-0.041003472
-0.036259982
-0.031633752
-0.027115722
-0.022692526
-0.018366603
-0.014089667
-0.0099733675
-0.0056380971
-0.0024073842
1.3077362
1.3053353
1.2994252
1.2901477
1.2779178
1.2628101
1.2447222
1.2235902
1.1993983
1.1721255
1.1417336
1.1081812
1.0714347
1.031471
0.9882798
0.94186848
0.89226735
0.83953517
0.78376434
0.7250862
0.66367623
0.59975864
0.5336102
0.46556312
0.39600606
0.32538353
0.25419294
0.18297922
0.11232658
0.042847632
-0.02483011
-0.090080019
-0.15229363
-0.21089885
-0.26537785
-0.31528368
-0.36025446
-0.40002429
-0.43442988
-0.46341277
-0.48701694
-0.50538204
-0.51873301
-0.5273669
-0.53163796
-0.53194185
-0.5287003
-0.52234667
-0.51331319
-0.50202012
-0.48886717
-0.47422704
-0.45844098
-0.44181622
-0.42462486
-0.40710408
-0.38945731
-0.37185621
-0.35444296
-0.33733288
-0.32061729
-0.3043666
-0.28863325
-0.27345437
-0.25885374
-0.24484348
-0.23142594
-0.21859595
-0.20634311
-0.19465351
-0.18351027
-0.17289351
-0.16278019
-0.15314493
-0.14396159
-0.13520498
-0.12685185
-0.11888052
-0.11126967
-0.10399719
-0.097039925
-0.090374661
-0.083979545
-0.077835189
-0.071924693
-0.066232707
-0.060744171
-0.055443507
-0.050314617
-0.045341624
-0.040509638
-0.035805504
-0.031217051
-0.026734635
-0.022343876
-0.018045651
-0.013791335
-0.0096893863
-0.0053831449
-0.0022154883
1.3203481
1.3180244
1.3122942
1.303262
1.2913104
1.2765098
1.2587576
1.2379804
1.2141498
1.1872325
1.1571779
1.1239307
1.0874413
1.0476696
1.0045869
0.95818106
0.90846246
0.85546958
0.79927506
0.73999177
0.67777889
0.61284761
0.54546619
0.47596389
0.40473315
0.33223002
0.25897195
0.18553274
0.11253425
0.040634802
-0.029485626
-0.097143049
-0.16166931
-0.22243312
-0.2788611
-0.33045744
-0.37682091
-0.41765783
-0.45279015
-0.4821581
-0.50581721
-0.5239302
-0.53675451
-0.54462662
-0.54794439
-0.5471487
-0.5427057
-0.53509048
-0.52477284
-0.51220549
-0.49781503
-0.48199536
-0.4651035
-0.44745742
-0.42933559
-0.41097785
-0.39258734
-0.37433301
-0.35635252
-0.33875537
-0.32162637
-0.30502914
-0.28900937
-0.27359734
-0.25881003
-0.24465303
-0.23112286
-0.21820949
-0.20589852
-0.19417232
-0.18301024
-0.1723885
-0.16228062
-0.15265879
-0.14349559
-0.1347653
-0.12644396
-0.11850853
-0.11093575
-0.10370163
-0.096782016
-0.090153804
-0.083796004
-0.07768998
-0.071818799
-0.066166153
-0.060715595
-0.055450439
-0.050354297
-0.045411792
-0.040608894
-0.035933012
-0.031371869
-0.026915047
-0.022546984
-0.018267787
-0.014027123
-0.0099352102
-0.0056134487
-0.0023910897
1.3350374
1.3327818
1.3272168
1.318426
1.3067612
1.2922789
1.2748695
1.2544492
1.2309758
1.2044026
1.1746646
1.1416908
1.1054138
1.0657739
1.0227212
0.97622124
0.92626078
0.87285451
0.8160516
0.75594283
0.69266783
0.62642207
0.55746337
0.48611728
0.41278086
0.33792426
0.26208962
0.18588656
0.10998386
0.035097022
-0.038028051
-0.10863516
-0.1759808
-0.23935891
-0.29812606
-0.35172506
-0.3997056
-0.44174008
-0.4776334
-0.50732616
-0.53089085
-0.54852193
-0.56052043
-0.56727493
-0.56924033
-0.56691607
-0.56082537
-0.55149643
-0.53944648
-0.52516883
-0.50912339
-0.49173011
-0.47336508
-0.45435904
-0.43499771
-0.41552372
-0.39613923
-0.3770093
-0.35826548
-0.34000979
-0.32231883
-0.30524768
-0.28883322
-0.27309683
-0.25804671
-0.2436804
-0.22998747
-0.21695199
-0.20455421
-0.19277107
-0.18157643
-0.1709414
-0.16083561
-0.15122884
-0.14209233
-0.13339911
-0.12512334
-0.11723928
-0.10972091
-0.10254228
-0.095678659
-0.089107431
-0.082808338
-0.076762828
-0.070953046
-0.065361147
-0.059969242
-0.054759986
-0.049717235
-0.044826382
-0.040074052
-0.035447719
-0.030934489
-0.026522945
-0.022196648
-0.017954828
-0.013747864
-0.0096838353
-0.0054034999
-0.0022418137
1.3517425
1.3495534
1.3441501
1.3356026
1.3242361
1.3100932
1.2930571
1.2730347
1.2499703
1.2238022
1.1944493
1.161822
1.1258325
1.0863978
1.0434431
0.99690711
0.94674843
0.89295289
0.83554102
0.77457629
0.71017359
0.64250798
0.57182286
0.4984372
0.42275123
0.34524971
0.26650225
0.18715953
0.10794517
0.029642491
-0.046923719
-0.12091018
-0.19148215
-0.2578428
-0.31926364
-0.37511326
-0.42488267
-0.46820466
-0.50486591
-0.5348106
-0.55813554
-0.57507757
-0.58599432
-0.59134077
-0.59164332
-0.58747373
-0.57942449
-0.56808715
-0.55403437
-0.53780581
-0.51989825
-0.50075924
-0.48078394
-0.46031464
-0.43964223
-0.41900921
-0.39861346
-0.37861257
-0.35912854
-0.34025267
-0.3220503
-0.30456506
-0.28782229
-0.27183198
-0.2565917
-0.24208966
-0.22830753
-0.21522248
-0.20280816
-0.19103495
-0.17987052
-0.16928096
-0.15923246
-0.14969277
-0.14063161
-0.13202016
-0.12383005
-0.11603286
-0.1086005
-0.10150623
-0.09472563
-0.088236758
-0.08201948
-0.076054446
-0.070322386
-0.064804157
-0.059481403
-0.054337278
-0.049356714
-0.044526045
-0.039832158
-0.035262034
-0.030801857
-0.026439348
-0.022157598
-0.017955931
-0.013784799
-0.0097531607
-0.005492689
-0.0023224981
1.3704043
1.3682832
1.3630462
1.3547529
1.3437056
1.3299325
1.3133085
1.293729
1.2711232
1.2454121
1.2164954
1.1842626
1.1486019
1.1094041
1.0665654
1.0199933
0.96961352
0.91537777
0.85727243
0.79532783
0.72962849
0.66032363
0.58763752
0.51187909
0.43344991
0.35284972
0.27067865
0.18763471
0.10450599
0.022156716
-0.058493101
-0.13649423
-0.21090005
-0.28080197
-0.3453664
-0.40387027
-0.45573225
-0.50053699
-0.53804994
-0.56822159
-0.59118108
-0.60721986
-0.61676752
-0.6203624
-0.61861972
-0.61219995
-0.60177953
-0.58802582
-0.57157673
-0.55302559
-0.53291099
-0.51171093
-0.48984068
-0.46765386
-0.44544526
-0.42345537
-0.40187543
-0.3808531
-0.36049836
-0.34088947
-0.32207823
-0.30409457
-0.28695026
-0.27064235
-0.25515673
-0.24047142
-0.22655913
-0.21338879
-0.20092616
-0.18913432
-0.17797479
-0.16740909
-0.15740025
-0.1479135
-0.13891584
-0.13037528
-0.12226021
-0.11453981
-0.10718495
-0.1001691
-0.09346844
-0.087061078
-0.080925874
-0.075041672
-0.069387418
-0.06394304
-0.058690427
-0.053613821
-0.048699306
-0.043933765
-0.039303812
-0.034795586
-0.030394406
-0.026087457
-0.021857822
-0.017704898
-0.013580067
-0.0095908631
-0.0053785409
-0.0022538971
1.3909619
1.3889129
1.3838528
1.3758323
1.3651322
1.3517667
1.3356014
1.3165199
1.2944355
1.2692509
1.2408455
1.2090856
1.1738333
1.1349496
1.0922982
1.0457507
0.99519487
0.94054232
0.88173867
0.81877423
0.75169588
0.68061996
0.60574515
0.5273649
0.44587846
0.36179931
0.27575995
0.18851126
0.10091551
0.013931831
-0.07140654
-0.15402291
-0.232835
-0.30679788
-0.37494942
-0.43645442
-0.49064366
-0.53704434
-0.57539844
-0.60566771
-0.62802503
-0.64283308
-0.6506135
-0.65200969
-0.64774728
-0.63859544
-0.62533196
-0.60871403
-0.58945541
-0.56821027
-0.54556312
-0.52202398
-0.49802782
-0.47393746
-0.4500484
-0.42659512
-0.40375794
-0.38167034
-0.3604262
-0.34008668
-0.32068611
-0.30223712
-0.28473494
-0.26816152
-0.2524893
-0.23768436
-0.22370851
-0.21052042
-0.19807641
-0.18633163
-0.17524151
-0.16476329
-0.15485666
-0.1454835
-0.13660705
-0.12819143
-0.12020191
-0.1126059
-0.10537393
-0.098479839
-0.091899984
-0.08561181
-0.079592757
-0.073820099
-0.068271817
-0.062927865
-0.05777093
-0.052786227
-0.047960366
-0.043280078
-0.038731399
-0.034299913
-0.029970788
-0.025731482
-0.021565612
-0.01747281
-0.013405044
-0.0094682895
-0.0053087922
-0.0022222476
1.413351
1.4113801
1.406512
1.3987895
1.3884718
1.3755599
1.3599098
1.3413927
1.3199054
1.2953308
1.2675262
1.2363323
1.2015819
1.1631029
1.1207218
1.0742696
1.0235896
0.96854666
0.90903809
0.8450057
0.77645009
0.70344583
0.62615756
0.54485592
0.4599323
0.37191113
0.2814581
0.1893823
0.096630676
0.0042731671
-0.086522356
-0.17452574
-0.25848969
-0.33720223
-0.40954286
-0.47453806
-0.53141048
-0.57961749
-0.61887431
-0.64915967
-0.67070404
-0.68396169
-0.68957066
-0.68830563
-0.68102816
-0.66863932
-0.65203789
-0.63208628
-0.60958516
-0.58525658
-0.55973436
-0.53356109
-0.50718986
-0.48098951
-0.45525203
-0.4302012
-0.40600175
-0.38276846
-0.36057486
-0.33946098
-0.31944003
-0.30050421
-0.28262986
-0.26578208
-0.24991846
-0.23499183
-0.22095172
-0.20774553
-0.19531978
-0.18362163
-0.17260056
-0.16220916
-0.15240309
-0.14314027
-0.13438019
-0.12608394
-0.11821488
-0.11073959
-0.10362825
-0.096854111
-0.090392318
-0.084218767
-0.07830958
-0.072641586
-0.067193336
-0.061945942
-0.056883153
-0.0519905
-0.047254063
-0.042659603
-0.038192336
-0.033837737
-0.029581586
-0.025412335
-0.02131451
-0.01728805
-0.013284968
-0.0094101259
-0.0053071115
-0.0022496408
1.4375014
1.4356166
1.4309598
1.4235662
1.4136735
1.4012693
1.3862005
1.3683257
1.3475243
1.3236586
1.2965621
1.2660483
1.231918
1.1939628
1.1519677
1.105718
1.0550064
0.99964364
0.93946998
0.8743693
0.8042854
0.72924025
0.64935371
0.56486372
0.47614578
0.38373014
0.28831477
0.19077139
0.092142252
-0.0063741087
-0.1034506
-0.1976727
-0.28759251
-0.37179316
-0.44895892
-0.51794521
-0.57784151
-0.62802043
-0.66816702
-0.69828544
-0.71868253
-0.72993091
-0.7328167
-0.72827907
-0.71734749
-0.70108338
-0.68052978
-0.6566721
-0.63041002
-0.6025404
-0.57374921
-0.54461102
-0.51559391
-0.48706795
-0.45931583
-0.43254449
-0.40689695
-0.38246348
-0.35929178
-0.33739585
-0.31676354
-0.29736315
-0.27914933
-0.26206773
-0.24605869
-0.2310595
-0.21700589
-0.20383332
-0.19147846
-0.1798806
-0.1689827
-0.1587315
-0.14907711
-0.13997245
-0.13137328
-0.1232386
-0.11553109
-0.10821721
-0.1012665
-0.094650582
-0.088342275
-0.082315285
-0.076544658
-0.071007586
-0.065684078
-0.060556891
-0.055610704
-0.050830881
-0.046202483
-0.041710098
-0.03733834
-0.033072927
-0.028900633
-0.02481106
-0.020789745
-0.016836589
-0.012904795
-0.0090953654
-0.0050723947
-0.002096034
1.4633367
1.461547
1.4571241
1.450096
1.4406777
1.4288438
1.4144324
1.3972896
1.3772771
1.3542357
1.3279742
1.2982767
1.26491
1.2276256
1.1861631
1.140256
1.0896399
1.0340627
0.97329792
0.90716004
0.83552347
0.75834404
0.67568303
0.58773243
0.49484042
0.39753486
0.29654248
0.19280033
0.087456807
-0.018141539
-0.12247966
-0.22392147
-0.32077482
-0.41137063
-0.49415114
-0.56775916
-0.63111874
-0.68349867
-0.72454992
-0.75431322
-0.77319633
-0.7819246
-0.78147238
-0.77298476
-0.75769808
-0.73686766
-0.71170763
-0.68334557
-0.65279219
-0.62092501
-0.58848291
-0.55606944
-0.52416204
-0.49312489
-0.46322352
-0.43464017
-0.40748847
-0.38182695
-0.35767101
-0.33500307
-0.31378129
-0.29394686
-0.27542998
-0.25815444
-0.24204086
-0.22700896
-0.21297931
-0.19987499
-0.18762307
-0.17615537
-0.16540843
-0.15532294
-0.14584315
-0.13691698
-0.12849666
-0.12053935
-0.11300724
-0.10586658
-0.099086295
-0.092636674
-0.086488859
-0.08061524
-0.074990501
-0.069592469
-0.064402304
-0.059403809
-0.054582104
-0.049922359
-0.045409168
-0.041026786
-0.036759947
-0.03259491
-0.028519154
-0.02452292
-0.020592122
-0.016727073
-0.012880952
-0.0091560842
-0.0052005314
-0.0022388538
1.4907716
1.4890876
1.4849248
1.4783036
1.4694158
1.4582229
1.4445552
1.4282463
1.4091402
1.387056
1.3617766
1.3330558
1.3006236
1.264189
1.2234415
1.1780574
1.1277078
1.0720691
1.0108366
0.94374277
0.87057754
0.79121435
0.70563857
0.61397917
0.51654141
0.4138383
0.30661822
0.19588419
0.082900681
-0.030816408
-0.14353078
-0.25334014
-0.35825405
-0.45629189
-0.54559445
-0.62453847
-0.69184145
-0.74664414
-0.78855911
-0.81767939
-0.83454642
-0.84008363
-0.83550553
-0.82221568
-0.80170569
-0.77546542
-0.74491109
-0.71133358
-0.67586688
-0.63947365
-0.60294431
-0.56690575
-0.53183649
-0.49808508
-0.46588993
-0.43539882
-0.40668688
-0.37977265
-0.3546319
-0.3312094
-0.30942867
-0.2891999
-0.27042583
-0.25300596
-0.2368394
-0.22182704
-0.2078734
-0.19488839
-0.18278846
-0.17149684
-0.16094297
-0.15106156
-0.14179201
-0.13307851
-0.12487057
-0.1171233
-0.10979708
-0.10285646
-0.096268786
-0.090003231
-0.084030507
-0.078323311
-0.072857014
-0.067610146
-0.062564163
-0.057702683
-0.053010441
-0.048472392
-0.044073417
-0.039798589
-0.035633638
-0.031565619
-0.027582298
-0.023673636
-0.019825428
-0.016037225
-0.012265164
-0.0086062529
-0.0047516811
-0.0019184189
1.519712
1.5181453
1.5142715
1.5081036
1.4998086
1.4893354
1.4765074
1.4611466
1.4430795
1.4221032
1.3979748
1.3704163
1.3391199
1.3037486
1.2639383
1.2193024
1.1694398
1.1139455
1.0524248
0.98451274
0.90989747
0.82835004
0.73975843
0.64416631
0.5418148
0.43318406
0.31903189
0.20042378
0.078748714
-0.044285502
-0.16668305
-0.28622168
-0.40054583
-0.50728834
-0.60421231
-0.68935931
-0.76118689
-0.81867676
-0.86139845
-0.88951894
-0.90375746
-0.90529529
-0.8956543
-0.87656329
-0.84982877
-0.81722382
-0.780402
-0.74083975
-0.6998051
-0.65834753
-0.61730394
-0.57731501
-0.53884807
-0.50222274
-0.46763696
-0.4351916
-0.40491225
-0.37676794
-0.35068694
-0.32656983
-0.3043
-0.28375185
-0.26479674
-0.24730719
-0.23115949
-0.21623574
-0.20242496
-0.18962403
-0.17773803
-0.16668013
-0.15637129
-0.14673995
-0.13772166
-0.12925888
-0.12130028
-0.1137999
-0.1067161
-0.10001073
-0.093648631
-0.087597625
-0.081828628
-0.076315762
-0.071036192
-0.065969679
-0.061097902
-0.056403858
-0.051871422
-0.04748525
-0.043230827
-0.039094612
-0.035063954
-0.03112702
-0.027271859
-0.023488019
-0.019760531
-0.016089259
-0.012429624
-0.0088837393
-0.0051037697
-0.0022540434
1.5500527
1.5486163
1.5450633
1.5393992
1.5317651
1.522098
1.5102154
1.495929
1.4790482
1.459349
1.4365624
1.4103788
1.3804511
1.3463945
1.3077873
1.2641749
1.2150763
1.1599947
1.0984322
1.0299096
0.95399299
0.87032722
0.77867625
0.67897024
0.57135795
0.45626136
0.33442849
0.20697812
0.075428763
-0.058296593
-0.1918989
-0.32277118
-0.44810969
-0.56506526
-0.67092464
-0.76330408
-0.84033109
-0.90078826
-0.9441973
-0.97082932
-0.9816413
-0.9781518
-0.96227781
-0.93615847
-0.90198946
-0.86188487
-0.81777539
-0.77134591
-0.72400674
-0.67689165
-0.63087397
-0.58659365
-0.5444901
-0.5048367
-0.46777434
-0.43334172
-0.40150153
-0.37216233
-0.34519625
-0.320453
-0.29777063
-0.27698343
-0.25792773
-0.240446
-0.22438968
-0.20962091
-0.1960131
-0.18345053
-0.17182742
-0.1610472
-0.15102231
-0.14167446
-0.13293492
-0.124744
-0.11704969
-0.10980555
-0.1029689
-0.096499873
-0.090361454
-0.084520179
-0.078946859
-0.073616603
-0.068508171
-0.063602818
-0.058883096
-0.054332139
-0.049933522
-0.045671654
-0.041532298
-0.03750277
-0.033571661
-0.029728332
-0.025961631
-0.022261329
-0.018612869
-0.015014986
-0.011427733
-0.0079428133
-0.004291764
-0.0016446217
1.5816779
1.5803853
1.577187
1.5720811
1.5651815
1.5564138
1.5455913
1.532517
1.5169845
1.4987496
1.4775184
1.4529499
1.4246574
1.3922069
1.3551164
1.3128582
1.2648642
1.2105354
1.1492561
1.0804143
1.0034309
0.91779633
0.82311803
0.71917689
0.60599229
0.48389289
0.35358783
0.21623149
0.073471437
-0.072532121
-0.2191278
-0.36324626
-0.50153198
-0.63053154
-0.74692699
-0.84779037
-0.93082647
-0.99456632
-1.0384792
-1.0629833
-1.069355
-1.0595567
-1.0360155
-1.00139
-0.95835711
-0.90944026
-0.85689123
-0.80262472
-0.74819705
-0.69481722
-0.64337783
-0.59449656
-0.54856198
-0.50577907
-0.46621125
-0.42981708
-0.39648092
-0.36603784
-0.33829348
-0.31303904
-0.29006207
-0.26915392
-0.25011431
-0.23275454
-0.21689978
-0.20239033
-0.18908213
-0.17684612
-0.16556673
-0.15514029
-0.14547372
-0.13648403
-0.12809818
-0.12025276
-0.11289297
-0.10597087
-0.099443473
-0.09327126
-0.087417698
-0.081849452
-0.076537092
-0.071455508
-0.066583717
-0.0619039
-0.057400126
-0.053057037
-0.048859261
-0.044791539
-0.040839351
-0.03698961
-0.0332308
-0.029552783
-0.025945507
-0.022400252
-0.018903684
-0.015456999
-0.012017728
-0.0086873454
-0.0051084352
-0.0023654966
1.6144587
1.6133247
1.610517
1.6060268
1.5999398
1.5921708
1.5825315
1.5708176
1.5568092
1.5402435
1.5208034
1.4981181
1.471762
1.4412514
1.4060422
1.3655297
1.3190522
1.2658978
1.2053183
1.136549
1.0588388
0.97149114
0.87391783
0.76570575
0.64669696
0.51707884
0.37747935
0.22905843
0.07358277
-0.086531518
-0.24822674
-0.40787867
-0.56145039
-0.70472694
-0.83361687
-0.94448975
-1.0345038
-1.101869
-1.1459986
-1.1675188
-1.1681377
-1.1504055
-1.1174114
-1.0724734
-1.0188632
-0.9595941
-0.89728542
-0.83409905
-0.77173321
-0.711454
-0.65414685
-0.6003769
-0.55045114
-0.50447743
-0.46241683
-0.42412698
-0.38939705
-0.35797497
-0.32958861
-0.30396149
-0.28082384
-0.25991954
-0.24100981
-0.22387473
-0.20831354
-0.19414451
-0.18120487
-0.16935045
-0.15845487
-0.14840787
-0.13911311
-0.13048583
-0.12245098
-0.11494211
-0.10790094
-0.10127673
-0.095025658
-0.089109398
-0.083493666
-0.078147199
-0.073041495
-0.068151205
-0.063454844
-0.05893479
-0.054576597
-0.050367413
-0.046294377
-0.042343843
-0.038501481
-0.034753237
-0.031086432
-0.027490419
-0.02395603
-0.020476466
-0.017041739
-0.013653302
-0.010277568
-0.0069963571
-0.0035990988
-0.0012052101
1.6482538
1.6472933
1.6449138
1.6410995
1.6359066
1.6292409
1.6209144
1.6107187
1.5984226
1.5837474
1.5663557
1.5458492
1.5217654
1.4935723
1.4606631
1.4223537
1.3778829
1.3264169
1.2670598
1.1988728
1.1209041
1.0322325
0.93202733
0.81962628
0.69463247
0.55702795
0.40729906
0.24656337
0.076682378
-0.099661159
-0.27894651
-0.45688469
-0.62859565
-0.78889902
-0.93270617
-1.0554714
-1.1536388
-1.2250051
-1.2689257
-1.286322
-1.2794908
-1.2517649
-1.2070972
-1.1496458
-1.0834175
-1.012008
-0.9384504
-0.86516265
-0.79396849
-0.72615969
-0.66257576
-0.6036882
-0.54968255
-0.50053343
-0.45606874
-0.41602087
-0.38006561
-0.34785096
-0.31901807
-0.29321612
-0.27011248
-0.24939903
-0.23079542
-0.21404979
-0.19893722
-0.18525723
-0.17283136
-0.16150172
-0.15113035
-0.14159848
-0.132805
-0.12466356
-0.11709916
-0.11004524
-0.10344213
-0.09723696
-0.091384035
-0.085844755
-0.08058638
-0.075580159
-0.070799728
-0.066220706
-0.061821394
-0.057583794
-0.0534939
-0.049540608
-0.045713696
-0.042001914
-0.038392124
-0.034869969
-0.031421393
-0.028034536
-0.024700064
-0.021412867
-0.018165266
-0.014964533
-0.011772345
-0.0086913864
-0.0053291437
-0.0026613419
1.682908
1.6821368
1.6802238
1.6771468
1.6729323
1.6674778
1.6605994
1.6520872
1.6417021
1.6291534
1.614087
1.5960811
1.5746399
1.549186
1.5190515
1.4834723
1.4415843
1.3924233
1.3349322
1.2679764
1.1903722
1.1009314
0.9985261
0.88217783
0.75117248
0.60520181
0.44452611
0.27014766
0.083975764
-0.11104377
-0.31087116
-0.51042487
-0.70377898
-0.8845227
-1.046271
-1.1832736
-1.2910314
-1.3668028
-1.4098886
-1.4216319
-1.4051374
-1.3647874
-1.3056673
-1.2330077
-1.1517233
-1.0660962
-0.97961397
-0.8949447
-0.81400235
-0.73805419
-0.66783841
-0.6036782
-0.54558745
-0.49336396
-0.44666599
-0.40507096
-0.36811808
-0.33533857
-0.30627602
-0.28049916
-0.257609
-0.23724285
-0.21907611
-0.20282237
-0.18823139
-0.17508528
-0.16319388
-0.15239068
-0.14253021
-0.13348675
-0.12515369
-0.11744186
-0.11027639
-0.10359286
-0.097333857
-0.091447466
-0.085887609
-0.080614993
-0.075597308
-0.070808053
-0.066224223
-0.061824733
-0.057589865
-0.053502096
-0.049547126
-0.045713948
-0.041993559
-0.038376969
-0.034853477
-0.031410432
-0.028034296
-0.02471273
-0.02143607
-0.018199297
-0.014997558
-0.011836741
-0.0086940692
-0.0056392968
-0.0025523236
-0.00050755127
1.7182528
1.7176862
1.7162782
1.7140009
1.7108496
1.7067165
1.7014244
1.6947663
1.6864992
1.6763249
1.6638778
1.6487181
1.6303223
1.6080725
1.5812439
1.5489948
1.5103569
1.4642308
1.4093859
1.3444711
1.2680387
1.1785872
1.0746288
0.95478818
0.81793638
0.66336379
0.49098823
0.30158848
0.097041412
-0.11947321
-0.34334839
-0.56856402
-0.78789578
-0.99335531
-1.1768578
-1.3310505
-1.4501743
-1.5307785
-1.5721214
-1.5761528
-1.547095
-1.4907476
-1.4136881
-1.3225198
-1.2232764
-1.1210378
-1.0197724
-0.92236723
-0.83076344
-0.74612816
-0.66902093
-0.59954464
-0.53747985
-0.48239859
-0.43375265
-0.3909367
-0.35333204
-0.32033708
-0.29138729
-0.26596588
-0.2436072
-0.22389622
-0.20646625
-0.19099645
-0.17720898
-0.16486563
-0.15376335
-0.14372895
-0.13461376
-0.12628957
-0.11864653
-0.111592
-0.10504913
-0.098953851
-0.09325106
-0.087891414
-0.082830187
-0.078028189
-0.073453151
-0.069079971
-0.064889094
-0.060863889
-0.056988488
-0.053247156
-0.049625059
-0.046109524
-0.042690442
-0.039359466
-0.036108441
-0.03292805
-0.029807466
-0.026735649
-0.02370259
-0.020702959
-0.017730704
-0.014797743
-0.01186938
-0.0090554372
-0.0058970088
-0.0032335145
1.7541053
1.7537588
1.7528939
1.7514774
1.7494739
1.7467719
1.7432054
1.7385743
1.7326369
1.7250931
1.7155727
1.7036249
1.6887064
1.6701662
1.6472301
1.6189843
1.5843598
1.5421201
1.4908532
1.4289735
1.3547376
1.2662818
1.1616885
1.0390907
0.89682453
0.73363565
0.54894142
0.34314075
0.11794754
-0.12329474
-0.37538437
-0.63120193
-0.88191156
-1.1174911
-1.3276061
-1.5027484
-1.6354533
-1.7213274
-1.7596146
-1.7531447
-1.7076996
-1.6310047
-1.5316122
-1.4178879
-1.2972377
-1.1756498
-1.0575711
-0.94603539
-0.84290998
-0.74915401
-0.66504366
-0.59036512
-0.52458278
-0.46697784
-0.41674841
-0.37307374
-0.33515493
-0.3022425
-0.27365386
-0.24878104
-0.22709038
-0.20811756
-0.19146046
-0.17677178
-0.16375273
-0.15214859
-0.14174485
-0.13236267
-0.12385286
-0.11608957
-0.10896546
-0.10238911
-0.096283661
-0.09058535
-0.085240692
-0.080203353
-0.075431755
-0.070888916
-0.066543872
-0.062372915
-0.058359361
-0.054491106
-0.050757355
-0.04714607
-0.04364344
-0.040235165
-0.036908702
-0.03365449
-0.030465776
-0.027337155
-0.024262571
-0.02123474
-0.01824548
-0.015288489
-0.012358213
-0.0094585098
-0.0065765234
-0.0037660661
-0.0010449958
0.00053387657
1.7902695
1.7901574
1.7898722
1.7893758
1.788602
1.7874384
1.7857343
1.7833021
1.7799068
1.7752536
1.7689755
1.7606202
1.7496344
1.7353453
1.7169398
1.6934424
1.6636918
1.6263185
1.5797266
1.5220828
1.4513203
1.3651645
1.261192
1.1369359
0.99005229
0.81856031
0.62116571
0.39766453
0.14940511
-0.12024234
-0.40549547
-0.69797021
-0.98683438
-1.2594299
-1.502417
-1.7033513
-1.8524309
-1.9439935
-1.9773289
-1.9565563
-1.8896495
-1.7869674
-1.6596892
-1.5184484
-1.3723213
-1.2282963
-1.0912385
-0.96419147
-0.84879382
-0.74565316
-0.65463618
-0.57510383
-0.5061159
-0.4465962
-0.39544275
-0.35158893
-0.31403698
-0.28187889
-0.25430745
-0.23061759
-0.21020135
-0.19253989
-0.17719377
-0.1637919
-0.15202055
-0.14161474
-0.132352
-0.12404744
-0.11654891
-0.10973133
-0.10349119
-0.097742083
-0.092411413
-0.08743844
-0.082772199
-0.078369361
-0.074191996
-0.070206584
-0.066384592
-0.062704086
-0.059150508
-0.055715387
-0.052392987
-0.049176145
-0.04605373
-0.043011127
-0.040033121
-0.037107399
-0.034226752
-0.031388495
-0.028591815
-0.025834943
-0.023113162
-0.020421686
-0.017751415
-0.015112086
-0.012464006
-0.0099251151
-0.0069287914
-0.0041547137
1.8265354
1.826672
1.8270004
1.8274795
1.8280126
1.8284891
1.828779
1.8287122
1.8280674
1.8265629
1.8238448
1.8194703
1.8128892
1.8034208
1.7902288
1.7722916
1.7483702
1.7169742
1.6763293
1.6243504
1.5586261
1.4764263
1.3747445
1.2503941
1.1001801
0.92116879
0.71107637
0.46878438
0.19496856
-0.1072152
-0.43149549
-0.76807421
-1.1036585
-1.4221579
-1.7061759
-1.9392176
-2.1082316
-2.2058317
-2.2314724
-2.1911813
-2.0960368
-1.9600154
-1.7978094
-1.622976
-1.4466061
-1.2767361
-1.1184945
-0.97469499
-0.8465043
-0.73396383
-0.6363474
-0.55243955
-0.48078173
-0.41986437
-0.36823885
-0.32456617
-0.28763884
-0.25639257
-0.2299063
-0.20739172
-0.18817906
-0.17170461
-0.15749889
-0.14517362
-0.13440801
-0.12493607
-0.11653639
-0.10902448
-0.10224768
-0.096081461
-0.090425511
-0.085199073
-0.080335953
-0.075780627
-0.07148595
-0.06741203
-0.06352496
-0.05979578
-0.056199884
-0.052718121
-0.049337807
-0.046052788
-0.042861062
-0.03976018
-0.036743139
-0.033797152
-0.030906173
-0.028055523
-0.025236405
-0.022447194
-0.019691201
-0.016972694
-0.014292914
-0.01164955
-0.0090361696
-0.0064481084
-0.0038755249
-0.001343683
0.00094797226
0.0019387603
1.862682
1.8630792
1.8640518
1.8655564
1.8674663
1.8696767
1.8720823
1.8745375
1.8768418
1.8787357
1.8798894
1.8798831
1.878185
1.8741248
1.8668633
1.8553548
1.8383054
1.8141253
1.7808793
1.7362382
1.677438
1.6012586
1.5040375
1.3817424
1.2301325
1.0450462
0.82285084
0.56108527
0.2592974
-0.079971789
-0.45018972
-0.8400522
-1.2332617
-1.6092398
-1.9450572
-2.2185487
-2.41208
-2.515901
-2.5298618
-2.462846
-2.3303597
-2.1513711
-1.9452922
-1.729443
-1.5172937
-1.3178731
-1.1362781
-0.97474536
-0.83367229
-0.71229465
-0.60908948
-0.52209214
-0.44919643
-0.38837439
-0.33777359
-0.29573877
-0.26081962
-0.23177545
-0.20756401
-0.18731534
-0.17030499
-0.15593341
-0.14370904
-0.13323185
-0.12417761
-0.11628384
-0.10933729
-0.10316344
-0.097619366
-0.092589213
-0.087980768
-0.083720856
-0.079750088
-0.07601852
-0.072483902
-0.069111651
-0.06587435
-0.062750228
-0.059721354
-0.05677301
-0.053894656
-0.051081
-0.048331405
-0.045646262
-0.043022311
-0.040449933
-0.037914143
-0.035399426
-0.032895186
-0.030399066
-0.027916346
-0.025456283
-0.023026441
-0.020630911
-0.018262329
-0.015927309
-0.013572121
-0.011316494