/*--------------------------------*- C++ -*----------------------------------*\
| =========                 |                                                 |
| \\      /  F ield         | OpenFOAM: The Open Source CFD Toolbox           |
|  \\    /   O peration     | Version:  2406                                  |
|   \\  /    A nd           | Website:  www.openfoam.com                      |
|    \\/     M anipulation  |                                                 |
\*---------------------------------------------------------------------------*/
FoamFile
{
    version     2.0;
    format      ascii;
    arch        "LSB;label=32;scalar=64";
    class       surfaceScalarField;
    location    "600";
    object      phi;
}
// * * * * * * * * * * * * * * * * * * * * * * * * * * * * * * * * * * * * * //

dimensions      [0 3 -1 0 0 0 0];

oriented        oriented;

internalField   nonuniform List<scalar> 
39940
(
0.75000231
-1.8703521e-06
0.75000721
-6.3077047e-06
0.75001474
-1.1350689e-05
0.75002476
-1.68283e-05
0.75003725
-2.2690711e-05
0.75005222
-2.8924882e-05
0.75007026
-3.6117946e-05
0.75009021
-4.2453907e-05
0.75011267
-4.9717563e-05
0.75013766
-5.7294139e-05
0.75016518
-6.5167428e-05
0.75019523
-7.3317812e-05
0.75022842
-8.2321138e-05
0.75026352
-9.0347118e-05
0.75030109
-9.9159833e-05
0.75034108
-0.0001081156
0.75038401
-0.00011776304
0.75042858
-0.0001262414
0.75047586
-0.00013588295
0.75052448
-0.00014420941
0.75057544
-0.00015353689
0.75062732
-0.00016137121
0.75068104
-0.00017001568
0.75073511
-0.00017696563
0.75079039
-0.00018451846
0.75084531
-0.00019016779
0.75090069
-0.00019621573
0.75095491
-0.00020016611
0.75100877
-0.00020433888
0.75106062
-0.00020626185
0.75111127
-0.00020828619
0.7511591
-0.0002079763
0.75120435
-0.00020712446
0.75124727
-0.00020574399
0.75128637
-0.00020206851
0.75132201
-0.00019796066
0.751354
-0.00019290032
0.75138223
-0.00018698697
0.75140664
-0.00018033503
0.75142662
-0.00017246874
0.75144345
-0.00016532314
0.75145664
-0.0001572291
0.75146574
-0.00014831758
0.75147218
-0.00014051754
0.75147499
-0.00013154001
0.75147562
-0.00012389359
0.75147315
-0.00011526368
0.75146906
-0.00010813055
0.75146243
-0.00010015002
0.75145475
-9.3772818e-05
0.75144506
-8.6626587e-05
0.75143483
-8.1135764e-05
0.75142308
-7.4904436e-05
0.75141123
-7.0336355e-05
0.75139827
-6.5018279e-05
0.75138556
-6.133965e-05
0.75137265
-5.7477172e-05
0.75135908
-5.3407373e-05
0.75134614
-5.0907676e-05
0.75133334
-4.8147567e-05
0.75132014
-4.5099367e-05
0.75130781
-4.3538617e-05
0.7512958
-4.1635195e-05
0.75128413
-3.996434e-05
0.75127284
-3.8501607e-05
0.75126194
-3.7224084e-05
0.75125085
-3.5509464e-05
0.75124076
-3.5141234e-05
0.75123108
-3.4298574e-05
0.7512218
-3.3566506e-05
0.75121291
-3.2930458e-05
0.75120441
-3.2377431e-05
0.75119627
-3.1895644e-05
0.75118849
-3.1474833e-05
0.75118105
-3.1105776e-05
0.75117394
-3.0780612e-05
0.75116713
-3.049224e-05
0.75116062
-3.023467e-05
0.75115438
-3.0002322e-05
0.7511484
-2.9790439e-05
0.75114266
-2.9594563e-05
0.75113716
-2.941111e-05
0.75113187
-2.9236847e-05
0.75112677
-2.9069307e-05
0.75112187
-2.89061e-05
0.75111714
-2.8745289e-05
0.75111256
-2.8584891e-05
0.75110814
-2.8423393e-05
0.75110385
-2.8259403e-05
0.75109968
-2.8092029e-05
0.75109563
-2.7920494e-05
0.75109169
-2.7744498e-05
0.75108784
-2.7563962e-05
0.75108407
-2.7379214e-05
0.75108039
-2.7191308e-05
0.75107679
-2.7000851e-05
0.75107326
-2.6814698e-05
0.75106981
-2.6629054e-05
0.75106648
-2.6505902e-05
-2.6387193e-05
0.75000163
-3.5059377e-06
0.75000598
-1.0657704e-05
0.7500135
-1.8880217e-05
0.75002297
-2.6302216e-05
0.75003496
-3.4685123e-05
0.75004945
-4.3428795e-05
0.75006586
-5.2532226e-05
0.75008539
-6.1986876e-05
0.75010804
-7.238129e-05
0.75013264
-8.1901499e-05
0.7501598
-9.2329329e-05
0.75019011
-0.00010363988
0.75022179
-0.0001140001
0.7502572
-0.000125769
0.75029453
-0.0001364946
0.75033493
-0.00014851553
0.75037712
-0.00015995775
0.75042221
-0.00017133567
0.75046827
-0.00018195206
0.75051756
-0.0001934991
0.75056807
-0.00020405665
0.75062079
-0.00021409674
0.75067486
-0.00022408503
0.75072997
-0.00023208077
0.75078519
-0.00023974608
0.75084136
-0.0002463437
0.75089689
-0.00025174588
0.75095255
-0.00025583708
0.75100673
-0.00025851939
0.75106018
-0.00025971751
0.75111127
-0.00025938288
0.75116079
-0.00025749701
0.75120714
-0.00025347323
0.75125055
-0.00024916229
0.75129072
-0.00024224159
0.75132739
-0.00023462661
0.75136034
-0.00022585678
0.75138945
-0.00021609539
0.75141463
-0.00020552296
0.75143589
-0.00019372929
0.75145328
-0.00018271231
0.75146631
-0.00017025957
0.75147635
-0.0001583569
0.75148241
-0.00014657182
0.75148593
-0.00013505468
0.75148597
-0.00012393477
0.75148403
-0.00011331871
0.75147919
-0.00010329008
0.75147295
-9.390994e-05
0.7514644
-8.5218167e-05
0.75145501
-7.7235689e-05
0.75144384
-6.996632e-05
0.75143234
-6.3399896e-05
0.75141952
-5.7514651e-05
0.75140678
-5.2279749e-05
0.7513931
-4.7657704e-05
0.75137924
-4.3606327e-05
0.75136591
-4.0080945e-05
0.75135264
-3.7636654e-05
0.75133892
-3.4424364e-05
0.75132663
-3.2803645e-05
0.75131342
-3.0327318e-05
0.75130114
-2.9359175e-05
0.75128924
-2.8058336e-05
0.75127713
-2.6390085e-05
0.75126603
-2.6125733e-05
0.75125595
-2.5433566e-05
0.7512457
-2.4888913e-05
0.75123587
-2.4468972e-05
0.75122645
-2.4153458e-05
0.75121684
-2.3323639e-05
0.75120823
-2.3766802e-05
0.7512
-2.3666507e-05
0.75119213
-2.3611907e-05
0.75118461
-2.3593037e-05
0.75117743
-2.3601301e-05
0.75117056
-2.3629543e-05
0.75116399
-2.3671418e-05
0.75115771
-2.3721553e-05
0.75115169
-2.3775176e-05
0.75114592
-2.3828479e-05
0.75114038
-2.3878223e-05
0.75113507
-2.3921977e-05
0.75112995
-2.3957581e-05
0.75112503
-2.3983333e-05
0.75112028
-2.3997592e-05
0.75111569
-2.3999109e-05
0.75111125
-2.3986823e-05
0.75110695
-2.3960161e-05
0.75110278
-2.3918786e-05
0.75109872
-2.3862812e-05
0.75109477
-2.3792535e-05
0.75109092
-2.370868e-05
0.75108715
-2.3612229e-05
0.75108347
-2.3505077e-05
0.75107986
-2.3389852e-05
0.75107631
-2.3272146e-05
0.75107284
-2.3156729e-05
0.75106939
-2.3050929e-05
-2.291321e-05
0.75000202
-4.9302223e-06
0.75000621
-1.4851967e-05
0.75001241
-2.5085484e-05
0.75002177
-3.5664671e-05
0.75003365
-4.6578998e-05
0.75004805
-5.7838086e-05
0.75006557
-7.0054964e-05
0.75008501
-8.1432269e-05
0.75010638
-9.376451e-05
0.75013151
-0.0001070395
0.75015862
-0.00011943706
0.7501883
-0.00013332826
0.75022116
-0.00014687234
0.750256
-0.00016061681
0.750294
-0.00017449579
0.75033391
-0.0001884286
0.75037627
-0.00020232006
0.75042098
-0.0002160591
0.75046855
-0.0002295193
0.7505182
-0.00024316007
0.75056977
-0.00025562646
0.75062242
-0.00026675233
0.7506765
-0.00027816601
0.7507323
-0.00028788814
0.75078829
-0.00029574113
0.75084529
-0.00030335552
0.75090231
-0.00030877022
0.75095892
-0.00031244516
0.75101406
-0.00031366407
0.75106848
-0.00031414535
0.75112053
-0.00031143869
0.75117037
-0.00030734101
0.75121819
-0.00030129001
0.75126239
-0.00029336951
0.75130325
-0.0002831062
0.7513411
-0.00027247165
0.7513745
-0.00025926535
0.75140333
-0.00024492096
0.7514287
-0.00023089207
0.75145
-0.00021503546
0.75146671
-0.00019941652
0.75148014
-0.00018368767
0.75148987
-0.0001680865
0.75149552
-0.00015222569
0.75149857
-0.0001380953
0.75149808
-0.00012344582
0.75149497
-0.00011020374
0.75149014
-9.8459777e-05
0.7514827
-8.6470321e-05
0.75147356
-7.6071147e-05
0.75146299
-6.6668045e-05
0.75145188
-5.8848313e-05
0.75143926
-5.077723e-05
0.75142656
-4.4814718e-05
0.75141278
-3.8501424e-05
0.75139931
-3.4180399e-05
0.75138569
-2.9982725e-05
0.75137205
-2.6442414e-05
0.75135791
-2.3492545e-05
0.75134455
-2.1068071e-05
0.75133086
-1.9106839e-05
0.75131868
-1.8151522e-05
0.75130567
-1.6344777e-05
0.75129365
-1.6041184e-05
0.75128206
-1.4791584e-05
0.75127089
-1.4959803e-05
0.75125956
-1.4105847e-05
0.75124927
-1.46021e-05
0.75123942
-1.4617738e-05
0.75122999
-1.4729683e-05
0.75122158
-1.49171e-05
0.75121298
-1.5162087e-05
0.75120415
-1.4848333e-05
0.7511963
-1.5765871e-05
0.75118881
-1.6101013e-05
0.75118165
-1.6445819e-05
0.75117481
-1.6792755e-05
0.75116827
-1.7135542e-05
0.75116201
-1.7468894e-05
0.75115602
-1.778859e-05
0.75115028
-1.8091228e-05
0.75114477
-1.8374278e-05
0.75113948
-1.8635731e-05
0.7511344
-1.8874058e-05
0.7511295
-1.9087947e-05
0.75112478
-1.9276413e-05
0.75112021
-1.9438742e-05
0.7511158
-1.9574645e-05
0.75111153
-1.9684155e-05
0.75110738
-1.976772e-05
0.75110334
-1.9826044e-05
0.75109941
-1.986012e-05
0.75109558
-1.9871175e-05
0.75109183
-1.9860835e-05
0.75108815
-1.9831703e-05
0.75108455
-1.9786771e-05
0.75108101
-1.9733209e-05
0.75107753
-1.96729e-05
0.75107413
-1.9647649e-05
-1.9653719e-05
0.75000134
-6.2760925e-06
0.75000535
-1.8860529e-05
0.75001191
-3.1656041e-05
0.75002099
-4.4747609e-05
0.75003316
-5.8761617e-05
0.75004724
-7.1919006e-05
0.75006322
-8.6041282e-05
0.75008292
-0.00010114037
0.75010456
-0.00011541585
0.75012877
-0.00013125766
0.75015617
-0.00014684477
0.75018558
-0.00016274412
0.75021761
-0.0001789085
0.75025226
-0.00019527464
0.75028952
-0.00021176297
0.75032997
-0.00022887558
0.75037233
-0.00024469459
0.75041776
-0.00026148463
0.75046552
-0.00027728845
0.75051489
-0.00029253255
0.75056628
-0.00030702584
0.75062069
-0.00032116404
0.75067545
-0.00033293118
0.75073207
-0.00034450877
0.7507896
-0.0003532765
0.75084766
-0.00036142586
0.75090525
-0.0003663596
0.75096311
-0.00037031019
0.75102017
-0.00037073714
0.75107537
-0.0003693462
0.75112942
-0.00036548807
0.75118064
-0.00035856679
0.75122979
-0.00035044734
0.75127527
-0.00033884602
0.7513179
-0.000325742
0.75135559
-0.0003101609
0.7513899
-0.00029357627
0.75142067
-0.00027569255
0.75144601
-0.00025623649
0.75146772
-0.00023674816
0.75148527
-0.00021696174
0.75149818
-0.00019659661
0.75150725
-0.00017715178
0.75151331
-0.00015828899
0.75151545
-0.00014023292
0.75151457
-0.00012256486
0.7515116
-0.00010722769
0.75150506
-9.1913657e-05
0.75149767
-7.9085448e-05
0.75148797
-6.6360259e-05
0.75147743
-5.6134396e-05
0.75146516
-4.657014e-05
0.7514526
-3.8214188e-05
0.75143878
-3.0996695e-05
0.75142512
-2.4837072e-05
0.75141059
-1.9648081e-05
0.75139595
-1.5339269e-05
0.75138193
-1.2420978e-05
0.75136744
-9.0011343e-06
0.75135378
-7.3991186e-06
0.7513404
-5.7315047e-06
0.75132678
-4.5250489e-06
0.75131414
-3.7116524e-06
0.75130193
-3.8307472e-06
0.75129017
-3.0240392e-06
0.75127825
-3.0456703e-06
0.751268
-3.8525257e-06
0.7512576
-4.2050158e-06
0.75124705
-4.0707707e-06
0.75123754
-5.2248964e-06
0.75122846
-5.8406055e-06
0.7512198
-6.4987912e-06
0.75121213
-7.1827089e-06
0.75120363
-7.2775175e-06
0.7511961
-8.5747176e-06
0.75118891
-9.2620331e-06
0.75118205
-9.9328265e-06
0.75117549
-1.0580897e-05
0.75116922
-1.1201373e-05
0.75116322
-1.1790447e-05
0.75115747
-1.2345378e-05
0.75115195
-1.2864177e-05
0.75114666
-1.334545e-05
0.75114157
-1.3788152e-05
0.75113668
-1.4191582e-05
0.75113195
-1.4555352e-05
0.7511274
-1.4879492e-05
0.75112299
-1.5164376e-05
0.75111872
-1.5410794e-05
0.75111457
-1.5619803e-05
0.75111054
-1.5792716e-05
0.75110661
-1.5930986e-05
0.75110278
-1.6036349e-05
0.75109903
-1.6111031e-05
0.75109536
-1.6157979e-05
0.75109175
-1.6181299e-05
0.75108821
-1.6185405e-05
0.75108471
-1.6178241e-05
0.75108122
-1.6148144e-05
-1.6089234e-05
0.75000129
-7.5655561e-06
0.75000514
-2.2718605e-05
0.75001212
-3.8637917e-05
0.75002099
-5.3623787e-05
0.75003174
-6.9527027e-05
0.7500462
-8.6379767e-05
0.75006256
-0.00010241044
0.75008145
-0.00012003855
0.7501029
-0.00013687001
0.75012693
-0.00015529803
0.75015358
-0.00017350186
0.75018347
-0.00019264613
0.75021544
-0.00021087697
0.75025068
-0.00023052314
0.750288
-0.00024909085
0.75032799
-0.00026886592
0.75037119
-0.00028790865
0.75041696
-0.00030725775
0.7504646
-0.00032492615
0.75051516
-0.00034310569
0.7505679
-0.00035976649
0.75062199
-0.00037526188
0.75067839
-0.00038933262
0.75073619
-0.00040231252
0.75079504
-0.00041213541
0.75085456
-0.00042094803
0.75091431
-0.00042611188
0.75097322
-0.0004292232
0.75103199
-0.00042951633
0.75108952
-0.00042687748
0.75114528
-0.00042125286
0.75119876
-0.00041205508
0.75124888
-0.00040057112
0.75129579
-0.0003857571
0.75133909
-0.00036904332
0.75137905
-0.00035012095
0.75141421
-0.00032873511
0.75144439
-0.00030587414
0.75147071
-0.0002825525
0.75149255
-0.00025859203
0.7515094
-0.00023380835
0.7515226
-0.00020979871
0.75153117
-0.00018572155
0.75153658
-0.00016369741
0.75153734
-0.00014098499
0.75153618
-0.00012140225
0.75153165
-0.00010269921
0.75152532
-8.5579047e-05
0.75151573
-6.94929e-05
0.75150563
-5.625359e-05
0.75149352
-4.402953e-05
0.75148032
-3.3363904e-05
0.75146628
-2.4175357e-05
0.75145166
-1.6365617e-05
0.75143665
-9.8252285e-06
0.75142204
-5.0397665e-06
0.75140739
-6.8942697e-07
0.75139223
2.7406815e-06
0.75137787
5.3625342e-06
0.75136319
7.2821905e-06
0.75134947
7.9972984e-06
0.75133614
8.8006933e-06
0.75132326
9.1734182e-06
0.75131024
9.1891695e-06
0.7512983
8.9132761e-06
0.75128685
8.4031131e-06
0.75127589
7.1075758e-06
0.75126481
6.8728348e-06
0.7512554
5.3316747e-06
0.75124525
4.9194514e-06
0.75123615
3.2584103e-06
0.75122747
2.1734334e-06
0.7512192
1.0815173e-06
0.75121192
-2.6993871e-09
0.75120381
-4.6642887e-07
0.75119665
-2.1031389e-06
0.75118981
-3.1023925e-06
0.75118328
-4.0593403e-06
0.75117705
-4.9695888e-06
0.75117109
-5.8300345e-06
0.75116538
-6.6385709e-06
0.7511599
-7.393856e-06
0.75115465
-8.0950809e-06
0.7511496
-8.7418684e-06
0.75114475
-9.3342242e-06
0.75114006
-9.8725593e-06
0.75113554
-1.0357638e-05
0.75113117
-1.0790605e-05
0.75112694
-1.1172886e-05
0.75112282
-1.1506129e-05
0.75111883
-1.1792094e-05
0.75111493
-1.2032713e-05
0.75111113
-1.2230227e-05
0.75110741
-1.238736e-05
0.75110376
-1.2507488e-05
0.75110017
-1.2594363e-05
0.75109664
-1.265342e-05
0.75109316
-1.2688747e-05
0.75108973
-1.2723527e-05
-1.2781692e-05
0.75000184
-8.8125028e-06
0.75000558
-2.6456825e-05
0.75001118
-4.4248422e-05
0.75001984
-6.2290811e-05
0.75003156
-8.1250515e-05
0.75004454
-9.9372247e-05
0.75006122
-0.00011909328
0.75007981
-0.00013864085
0.75010156
-0.00015862801
0.75012531
-0.00017905218
0.7501517
-0.00019989391
0.75018076
-0.0002217165
0.75021314
-0.00024326193
0.75024766
-0.00026505011
0.75028554
-0.00028697538
0.75032557
-0.00030890667
0.75036895
-0.00033128476
0.7504144
-0.00035272014
0.75046367
-0.00037419717
0.75051423
-0.00039366895
0.75056772
-0.0004132673
0.75062336
-0.00043089904
0.75068088
-0.0004468553
0.75073998
-0.00046142009
0.75080031
-0.00047247384
0.75086147
-0.000482112
0.750923
-0.00048764793
0.75098441
-0.00049063461
0.75104516
-0.00049027264
0.7511047
-0.0004864245
0.75116247
-0.0004790267
0.75121791
-0.00046749738
0.75126988
-0.00045254498
0.75131909
-0.00043496822
0.7513639
-0.00041384978
0.75140453
-0.00039075514
0.7514407
-0.00036491183
0.75147223
-0.00033740011
0.75149901
-0.00030933073
0.75152044
-0.00028002024
0.75153781
-0.00025117881
0.75155009
-0.00022208247
0.75155814
-0.00019376407
0.75156224
-0.00016780087
0.75156336
-0.00014209582
0.75156065
-0.00011869146
0.75155451
-9.6554924e-05
0.75154653
-7.7593274e-05
0.75153648
-5.9445363e-05
0.75152474
-4.4507759e-05
0.75151164
-3.092488e-05
0.75149749
-1.921145e-05
0.75148257
-9.2549649e-06
0.75146713
-9.248526e-07
0.75145199
5.3193554e-06
0.75143612
1.0826678e-05
0.75142029
1.514274e-05
0.75140523
1.7809539e-05
0.75138982
2.0766934e-05
0.75137537
2.1738256e-05
0.75136072
2.2644727e-05
0.75134713
2.2391351e-05
0.75133343
2.2877643e-05
0.75132083
2.1784812e-05
0.75130875
2.0991213e-05
0.75129719
1.9961271e-05
0.75128555
1.8751406e-05
0.75127561
1.6808783e-05
0.75126496
1.5977267e-05
0.75125599
1.3887021e-05
0.75124627
1.2970532e-05
0.7512376
1.0847092e-05
0.75122933
9.3385716e-06
0.75122147
7.8590872e-06
0.75121457
6.4206111e-06
0.75120683
5.6334633e-06
0.75120002
3.7018574e-06
0.75119352
2.4339559e-06
0.75118732
1.2324503e-06
0.75118138
9.9711649e-08
0.75117571
-9.6287338e-07
0.75117026
-1.954641e-06
0.75116504
-2.8754974e-06
0.75116003
-3.7258067e-06
0.7511552
-4.5063891e-06
0.75115055
-5.2184463e-06
0.75114606
-5.8635563e-06
0.75114171
-6.4435923e-06
0.7511375
-6.9606152e-06
0.75113341
-7.4167755e-06
0.75112944
-7.8143147e-06
0.75112557
-8.1556659e-06
0.75112178
-8.4435907e-06
0.75111808
-8.6812542e-06
0.75111445
-8.8720757e-06
0.75111088
-9.0204014e-06
0.75110735
-9.1294211e-06
0.75110388
-9.2076456e-06
0.75110039
-9.2380533e-06
-9.2415778e-06
0.75000121
-1.0022304e-05
0.75000483
-3.0086044e-05
0.75001087
-5.0291229e-05
0.75001992
-7.1345069e-05
0.75003018
-9.1525761e-05
0.75004409
-0.00011329077
0.75005988
-0.00013488646
0.75007818
-0.00015694829
0.75009904
-0.00017949657
0.75012311
-0.00020313358
0.75014926
-0.000226043
0.75017812
-0.00025058802
0.75020976
-0.00027490694
0.75024482
-0.00030011357
0.75028273
-0.0003248908
0.75032351
-0.00034969226
0.75036716
-0.0003749382
0.75041365
-0.00039921303
0.75046231
-0.0004228691
0.75051486
-0.00044622313
0.75056935
-0.00046776158
0.75062619
-0.00048774237
0.75068514
-0.00050580442
0.75074588
-0.00052217192
0.75080867
-0.00053526744
0.75087128
-0.00054472371
0.75093563
-0.00055200137
0.75099999
-0.00055499762
0.75106318
-0.00055347035
0.7511252
-0.0005484526
0.75118484
-0.00053866314
0.75124266
-0.0005253248
0.75129748
-0.00050736482
0.75134873
-0.00048622492
0.75139533
-0.00046044841
0.75143746
-0.0004328831
0.75147479
-0.00040225015
0.75150713
-0.00036973485
0.75153436
-0.0003365582
0.75155588
-0.00030154521
0.75157242
-0.00026771315
0.75158417
-0.00023382946
0.75159202
-0.00020160919
0.7515945
-0.00017028665
0.75159383
-0.00014141896
0.75158981
-0.00011467154
0.75158289
-8.9625083e-05
0.75157348
-6.8184678e-05
0.75156201
-4.797517e-05
0.75154828
-3.0768773e-05
0.75153384
-1.648367e-05
0.75151843
-3.7965948e-06
0.75150234
6.8403301e-06
0.75148582
1.5594836e-05
0.7514691
2.2043695e-05
0.75145236
2.7570531e-05
0.75143575
3.1752986e-05
0.7514194
3.416216e-05
0.751404
3.6162832e-05
0.75138844
3.7304525e-05
0.75137396
3.7123678e-05
0.7513594
3.694645e-05
0.751346
3.6282053e-05
0.75133316
3.4626651e-05
0.75132028
3.3868187e-05
0.75130856
3.1675342e-05
0.75129739
2.9913748e-05
0.75128676
2.7434087e-05
0.75127665
2.6083723e-05
0.75126644
2.4096194e-05
0.7512579
2.1501523e-05
0.75124862
2.0127054e-05
0.75124036
1.758815e-05
0.75123251
1.5703095e-05
0.75122504
1.3882646e-05
0.75121854
1.2135663e-05
0.75121116
1.1069596e-05
0.75120471
8.8859396e-06
0.75119854
7.3903959e-06
0.75119266
5.9834719e-06
0.75118703
4.6657006e-06
0.75118163
3.4369049e-06
0.75117646
2.2963373e-06
0.75117149
1.2427357e-06
0.75116671
2.7442178e-07
0.75116211
-6.1067913e-07
0.75115766
-1.41494e-06
0.75115336
-2.1409277e-06
0.7511492
-2.7913056e-06
0.75114515
-3.3687733e-06
0.75114122
-3.8761496e-06
0.75113738
-4.3164489e-06
0.75113364
-4.6928918e-06
0.75112997
-5.0089376e-06
0.75112637
-5.2681892e-06
0.75112282
-5.4747327e-06
0.75111933
-5.6322729e-06
0.75111587
-5.7469769e-06
0.75111246
-5.823096e-06
-5.903534e-06
0.75000117
-1.1196457e-05
0.75000529
-3.4208836e-05
0.75001116
-5.6165521e-05
0.75001878
-7.8979358e-05
0.75002999
-0.0001027392
0.75004301
-0.00012631379
0.75005847
-0.00015035994
0.75007644
-0.0001749219
0.75009756
-0.00020062848
0.75012071
-0.00022628885
0.75014715
-0.00025249066
0.75017576
-0.00027919882
0.75020779
-0.00030695129
0.75024213
-0.00033445496
0.75028002
-0.00036278568
0.7503209
-0.00039058108
0.7503642
-0.00041824142
0.75041111
-0.00044612768
0.7504616
-0.00047335751
0.75051438
-0.00049900842
0.75056993
-0.00052332122
0.75062869
-0.00054650042
0.7506898
-0.00056692446
0.75075238
-0.00058475214
0.75081664
-0.00059953866
0.75088276
-0.00061084741
0.75094963
-0.00061886809
0.75101606
-0.00062143646
0.75108264
-0.00062005752
0.75114751
-0.00061332049
0.75121056
-0.00060172293
0.75127112
-0.0005858838
0.7513285
-0.00056475048
0.75138209
-0.00053980951
0.75143131
-0.00050967311
0.7514751
-0.00047667875
0.75151371
-0.00044085891
0.7515469
-0.0004029195
0.75157395
-0.00036360804
0.75159608
-0.00032368044
0.75161224
-0.00028386866
0.75162327
-0.00024485131
0.75162889
-0.00020722981
0.75163072
-0.00017211185
0.7516286
-0.0001392989
0.75162241
-0.00010848388
0.75161325
-8.0458738e-05
0.75160159
-5.6519656e-05
0.75158849
-3.4871968e-05
0.75157378
-1.6054529e-05
0.75155725
5.1947672e-08
0.75153984
1.3609806e-05
0.75152247
2.4210151e-05
0.75150481
3.3266116e-05
0.75148706
3.9794429e-05
0.75146941
4.5217154e-05
0.75145202
4.9147007e-05
0.751435
5.1186433e-05
0.75141843
5.2727581e-05
0.751403
5.2742547e-05
0.75138753
5.2591211e-05
0.75137326
5.12121e-05
0.75135901
5.0532703e-05
0.75134598
4.7655876e-05
0.75133357
4.6281706e-05
0.75132115
4.4085807e-05
0.75130993
4.1135914e-05
0.75129867
3.8690689e-05
0.75128915
3.5595001e-05
0.75127955
3.3690382e-05
0.75126984
3.12048e-05
0.7512618
2.8163027e-05
0.75125299
2.638744e-05
0.7512452
2.3488831e-05
0.75123779
2.1281385e-05
0.75123075
1.9172141e-05
0.75122465
1.7166558e-05
0.75121766
1.5868985e-05
0.75121157
1.3478238e-05
0.75120575
1.1797782e-05
0.75120019
1.0226191e-05
0.75119486
8.7622502e-06
0.75118976
7.4041309e-06
0.75118485
6.1495367e-06
0.75118013
4.9957877e-06
0.75117559
3.9399349e-06
0.7511712
2.9788456e-06
0.75116695
2.1093111e-06
0.75116283
1.328108e-06
0.75115884
6.3192023e-07
0.75115495
1.7313323e-08
0.75115116
-5.1930375e-07
0.75114745
-9.8160438e-07
0.75114382
-1.3733755e-06
0.75114025
-1.6983428e-06
0.75113674
-1.9608884e-06
0.75113327
-2.1634481e-06
0.75112984
-2.3143973e-06
0.75112642
-2.3983941e-06
-2.4615676e-06
0.75000174
-1.2333927e-05
0.75000454
-3.7022704e-05
0.75001084
-6.2464115e-05
0.75001883
-8.6979724e-05
0.75002915
-0.00011306909
0.75004184
-0.00013901286
0.75005695
-0.00016547887
0.75007515
-0.00019312267
0.75009529
-0.00022078238
0.75011807
-0.00024907519
0.75014417
-0.00027859623
0.75017308
-0.00030811286
0.75020429
-0.00033816442
0.75023908
-0.00036925529
0.75027694
-0.00040065259
0.75031794
-0.00043158298
0.75036212
-0.00046242741
0.75040951
-0.00049352093
0.7504601
-0.00052394908
0.75051443
-0.00055334841
0.75057182
-0.00058070952
0.75063149
-0.00060617878
0.75069443
-0.00062986865
0.75075974
-0.000650064
0.75082704
-0.00066684163
0.75089587
-0.00067968118
0.75096569
-0.00068869334
0.75103588
-0.00069163481
0.75110516
-0.00068934267
0.751174
-0.00068215505
0.751241
-0.00066873326
0.7513054
-0.0006502874
0.75136583
-0.00062518177
0.75142157
-0.00059555177
0.75147319
-0.00056128922
0.75151894
-0.00052243173
0.75155902
-0.00048094206
0.75159317
-0.00043706753
0.75162067
-0.00039110452
0.75164215
-0.00034516044
0.75165779
-0.00029950543
0.75166788
-0.00025494105
0.75167283
-0.00021216976
0.75167249
-0.00017177458
0.75166801
-0.00013480954
0.75165992
-0.00010039238
0.75164938
-6.9919323e-05
0.75163573
-4.286799e-05
0.75161948
-1.8616207e-05
0.7516023
1.1346723e-06
0.7515846
1.7753677e-05
0.75156555
3.2656062e-05
0.75154669
4.3078918e-05
0.75152707
5.2890097e-05
0.75150751
5.9349292e-05
0.75148881
6.392148e-05
0.7514705
6.7460061e-05
0.75145269
6.8999763e-05
0.75143606
6.9360637e-05
0.75141886
6.9943778e-05
0.75140352
6.7921281e-05
0.75138828
6.645637e-05
0.75137433
6.4484214e-05
0.75136046
6.152266e-05
0.75134786
5.8875551e-05
0.75133591
5.6027724e-05
0.75132399
5.3051157e-05
0.75131327
4.9404475e-05
0.75130253
4.6338599e-05
0.75129292
4.3292015e-05
0.75128442
3.9695013e-05
0.7512752
3.7375244e-05
0.75126763
3.3947344e-05
0.75125928
3.18294e-05
0.75125193
2.8627307e-05
0.75124495
2.6150854e-05
0.7512383
2.3803198e-05
0.75123258
2.1586487e-05
0.75122595
2.0102297e-05
0.7512202
1.7546992e-05
0.75121471
1.5721899e-05
0.75120944
1.4023603e-05
0.7512044
1.2449077e-05
0.75119956
1.0994863e-05
0.7511949
9.6572146e-06
0.75119041
8.4322645e-06
0.75118608
7.316126e-06
0.75118189
6.3049376e-06
0.75117783
5.3948214e-06
0.75117388
4.5818057e-06
0.75117004
3.8618294e-06
0.7511663
3.2307715e-06
0.75116264
2.68452e-06
0.75115905
2.2189266e-06
0.75115552
1.8300914e-06
0.75115205
1.5136179e-06
0.75114862
1.2674071e-06
0.75114523
1.0830409e-06
0.75114185
9.7441345e-07
8.846695e-07
0.7500011
-1.3432782e-05
0.75000499
-4.0920816e-05
0.75000989
-6.7374305e-05
0.75001823
-9.532619e-05
0.75002824
-0.00012308793
0.75004058
-0.00015135257
0.75005589
-0.00018080127
0.75007306
-0.00021030153
0.75009277
-0.00024050262
0.75011573
-0.00027203315
0.75014082
-0.00030369552
0.75016936
-0.00033666437
0.75020088
-0.00036968196
0.75023547
-0.00040385241
0.75027265
-0.00043783802
0.75031432
-0.0004732552
0.75035935
-0.00050746784
0.75040721
-0.00054138642
0.75045912
-0.00057586444
0.75051387
-0.00060809507
0.75057257
-0.00063941657
0.7506345
-0.000668112
0.75069945
-0.00069482009
0.75076772
-0.00071834345
0.75083774
-0.00073686412
0.75091023
-0.00075217097
0.7509834
-0.00076187096
0.75105719
-0.00076543046
0.75113145
-0.00076360098
0.75120414
-0.00075484912
0.75127499
-0.00073959138
0.75134252
-0.00071781746
0.75140705
-0.00068970977
0.75146654
-0.00065505029
0.75152087
-0.0006156218
0.75156882
-0.00057038098
0.75161053
-0.00052264246
0.75164568
-0.00047222138
0.75167357
-0.00041899072
0.75169485
-0.00036643692
0.75170974
-0.00031439267
0.751718
-0.00026320032
0.75172071
-0.00021488062
0.75171844
-0.00016949842
0.75171119
-0.00012755861
0.75170081
-9.0005102e-05
0.75168732
-5.6426014e-05
0.75167073
-2.6273541e-05
0.7516534
-1.2893481e-06
0.75163405
2.048557e-05
0.75161314
3.8675063e-05
0.75159224
5.3553064e-05
0.7515705
6.4822227e-05
0.75154999
7.3401711e-05
0.75152973
7.9610454e-05
0.7515093
8.4359733e-05
0.75149002
8.6741162e-05
0.75147079
8.823001e-05
0.75145288
8.7271941e-05
0.75143632
8.6495323e-05
0.75141935
8.4896061e-05
0.75140376
8.2046659e-05
0.75138954
7.8698257e-05
0.75137548
7.5580508e-05
0.75136275
7.1599733e-05
0.75135073
6.8049113e-05
0.75133937
6.4402849e-05
0.75132804
6.0722478e-05
0.75131792
5.6456669e-05
0.75130836
5.2846949e-05
0.75129872
4.9323263e-05
0.75129078
4.5308143e-05
0.7512821
4.2622175e-05
0.75127504
3.8873728e-05
0.75126719
3.6475335e-05
0.75126031
3.3028024e-05
0.75125377
3.0337393e-05
0.75124754
2.7802935e-05
0.75124162
2.6024686e-05
0.75123597
2.3197524e-05
0.75123057
2.1121389e-05
0.7512254
1.919151e-05
0.75122045
1.7403586e-05
0.7512157
1.5752962e-05
0.75121112
1.4234851e-05
0.75120672
1.2844436e-05
0.75120246
1.1576983e-05
0.75119834
1.0427836e-05
0.75119435
9.3923314e-06
0.75119047
8.4658303e-06
0.7511867
7.6436781e-06
0.75118301
6.9212502e-06
0.75117941
6.294025e-06
0.75117587
5.7575037e-06
0.7511724
5.307633e-06
0.75116898
4.9400105e-06
0.75116559
4.6526077e-06
0.75116224
4.4370174e-06
0.75115891
4.3039132e-06
4.1824665e-06
0.75000165
-1.4489481e-05
0.75000422
-4.3493527e-05
0.75001012
-7.3279228e-05
0.75001758
-0.00010279353
0.75002725
-0.00013276165
0.75003978
-0.00016389061
0.75005404
-0.00019507599
0.75007073
-0.00022699921
0.75009055
-0.00026032364
0.7501124
-0.00029389036
0.75013761
-0.00032891331
0.75016512
-0.00036417625
0.75019626
-0.0004008277
0.75023057
-0.00043817494
0.75026881
-0.00047607869
0.7503099
-0.00051434768
0.75035456
-0.00055213097
0.75040408
-0.0005909178
0.75045614
-0.00062792753
0.75051315
-0.00066511126
0.75057328
-0.00069955042
0.75063763
-0.00073246109
0.7507054
-0.00076259957
0.75077573
-0.00078867192
0.75085002
-0.00081116083
0.75092598
-0.00082813457
0.75100299
-0.00083888623
0.75108213
-0.00084456883
0.75116014
-0.00084162153
0.75123792
-0.00083262682
0.75131386
-0.00081553388
0.75138634
-0.00079030138
0.75145435
-0.00075772222
0.75151814
-0.00071883515
0.75157503
-0.00067251687
0.75162612
-0.00062147356
0.75166968
-0.00056619152
0.75170535
-0.00050789034
0.75173422
-0.00044785919
0.75175457
-0.00038678821
0.75176789
-0.00032771127
0.75177463
-0.00026993379
0.75177536
-0.00021560783
0.75177015
-0.00016428839
0.75176094
-0.00011833741
0.75174724
-7.6308931e-05
0.7517304
-3.9580902e-05
0.7517111
-6.9647641e-06
0.75168996
1.9854306e-05
0.75166754
4.2903117e-05
0.75164434
6.1878702e-05
0.75162137
7.6527694e-05
0.75159837
8.7826806e-05
0.75157561
9.6160351e-05
0.75155272
0.00010250848
0.75153165
0.00010543029
0.75151072
0.00010766978
0.75149122
0.00010773443
0.75147198
0.00010650582
0.75145424
0.00010423273
0.7514374
0.00010173467
0.75142205
9.7396904e-05
0.75140696
9.3785565e-05
0.7513927
8.9835054e-05
0.75137924
8.5058423e-05
0.75136713
8.0151484e-05
0.75135513
7.6393544e-05
0.751345
7.0841407e-05
0.7513343
6.7151057e-05
0.75132478
6.2355587e-05
0.75131581
5.8287405e-05
0.75130674
5.4367305e-05
0.75129935
5.0009785e-05
0.75129118
4.7028497e-05
0.75128462
4.3025588e-05
0.75127724
4.0408294e-05
0.7512708
3.6772994e-05
0.75126467
3.392141e-05
0.75125945
3.1249643e-05
0.75125329
2.9354763e-05
0.75124798
2.6429008e-05
0.75124291
2.4270139e-05
0.75123804
2.2271529e-05
0.75123338
2.0427365e-05
0.75122888
1.8731786e-05
0.75122455
1.7179006e-05
0.75122037
1.5763338e-05
0.75121633
1.4479207e-05
0.75121241
1.3321147e-05
0.7512086
1.2283785e-05
0.75120488
1.1361896e-05
0.75120126
1.0550362e-05
0.75119772
9.8442551e-06
0.75119424
9.2387979e-06
0.75119082
8.7298077e-06
0.75118745
8.3124446e-06
0.75118412
7.9856761e-06
0.75118082
7.7383018e-06
0.75117752
7.6016761e-06
7.5090152e-06
0.75000161
-1.5500261e-05
0.75000464
-4.652823e-05
0.75000971
-7.83575e-05
0.75001686
-0.00010995119
0.75002674
-0.00014264982
0.75003762
-0.00017477659
0.75005198
-0.00020944277
0.75006812
-0.00024314623
0.75008735
-0.00027956727
0.75010922
-0.00031576133
0.75013326
-0.00035295733
0.75016143
-0.00039235221
0.7501921
-0.00043150325
0.75022604
-0.00047212567
0.75026344
-0.00051348243
0.75030507
-0.00055597749
0.75035048
-0.00059755093
0.75039983
-0.00064026998
0.75045382
-0.00068192372
0.75051133
-0.00072261933
0.75057355
-0.00076178196
0.75063984
-0.00079875186
0.75071003
-0.00083279496
0.75078447
-0.00086311458
0.75086157
-0.00088826662
0.75094143
-0.00090798954
0.75102457
-0.00092203628
0.75110781
-0.00092781297
0.75119202
-0.00092583091
0.75127494
-0.0009155527
0.75135545
-0.00089604201
0.75143356
-0.00086841287
0.75150749
-0.0008316568
0.75157492
-0.00078626816
0.75163665
-0.00073424413
0.75169003
-0.00067485139
0.75173564
-0.00061179593
0.75177309
-0.00054533916
0.75180106
-0.00047582543
0.75182148
-0.00040720577
0.75183351
-0.00033973815
0.7518377
-0.00027412671
0.75183537
-0.000213274
0.75182732