/*--------------------------------*- C++ -*----------------------------------*\
| =========                 |                                                 |
| \\      /  F ield         | OpenFOAM: The Open Source CFD Toolbox           |
|  \\    /   O peration     | Version:  2406                                  |
|   \\  /    A nd           | Website:  www.openfoam.com                      |
|    \\/     M anipulation  |                                                 |
\*---------------------------------------------------------------------------*/
FoamFile
{
    version     2.0;
    format      ascii;
    arch        "LSB;label=32;scalar=64";
    class       volVectorField;
    location    "600";
    object      U;
}
// * * * * * * * * * * * * * * * * * * * * * * * * * * * * * * * * * * * * * //

dimensions      [0 1 -1 0 0 0 0];

internalField   nonuniform List<vector> 
16045
(
(30.000021 -2.9878979e-05 0)
(30.00016 -0.0001051596 0)
(30.000411 -0.00019881163 0)
(30.000765 -0.0003075841 0)
(30.001216 -0.00042912806 0)
(30.001765 -0.00056245895 0)
(30.002412 -0.00070698315 -9.3608876e-25)
(30.00316 -0.00086214951 0)
(30.004008 -0.0010274617 0)
(30.004957 -0.0012024782 0)
(30.006007 -0.0013867628 0)
(30.007158 -0.0015798403 0)
(30.008411 -0.0017811626 7.9801698e-25)
(30.009765 -0.0019900793 0)
(30.011218 -0.0022058165 0)
(30.01277 -0.0024274528 0)
(30.014417 -0.0026538994 0)
(30.016156 -0.0028838812 -2.9660932e-25)
(30.017982 -0.0031159338 -2.7990592e-25)
(30.01989 -0.0033483875 0)
(30.021871 -0.0035793834 0)
(30.023918 -0.0038068699 0)
(30.026021 -0.0040286362 0)
(30.028168 -0.0042423277 0)
(30.030346 -0.0044455006 2.8887968e-25)
(30.032541 -0.0046356577 0)
(30.034739 -0.0048103242 1.7643935e-25)
(30.036923 -0.0049670993 9.8590941e-27)
(30.039077 -0.0051037452 7.2443803e-27)
(30.041184 -0.0052182471 -6.6314291e-27)
(30.043226 -0.005308904 1.6798313e-27)
(30.045188 -0.0053743824 2.7763034e-27)
(30.047053 -0.0054137863 -5.0680373e-27)
(30.048808 -0.0054267023 1.4348596e-25)
(30.050439 -0.0054132151 -1.2419081e-26)
(30.051937 -0.00537393 -2.0683814e-27)
(30.053291 -0.005309949 1.4486301e-26)
(30.054497 -0.0052228392 0)
(30.055551 -0.0051145766 1.9395123e-26)
(30.056451 -0.0049874741 3.0398049e-25)
(30.057198 -0.0048441037 0)
(30.057798 -0.0046872017 0)
(30.058254 -0.0045195794 3.6581923e-25)
(30.058575 -0.0043440408 0)
(30.05877 -0.0041632972 3.7790723e-25)
(30.058848 -0.0039799061 0)
(30.05882 -0.0037962127 0)
(30.058698 -0.0036143144 0)
(30.058493 -0.0034360324 0)
(30.058216 -0.0032629026 0)
(30.057878 -0.0030961751 0)
(30.057489 -0.0029368242 0)
(30.05706 -0.0027855661 0)
(30.056598 -0.0026428807 0)
(30.056111 -0.0025090403 0)
(30.055608 -0.0023841354 0)
(30.055094 -0.0022681046 0)
(30.054575 -0.0021607623 -2.7893507e-25)
(30.054056 -0.0020618219 0)
(30.05354 -0.0019709233 0)
(30.053032 -0.0018876511 0)
(30.052533 -0.0018115525 0)
(30.052045 -0.0017421541 0)
(30.051571 -0.001678975 0)
(30.051112 -0.0016215353 0)
(30.050668 -0.0015693652 0)
(30.05024 -0.0015220093 -1.7763445e-25)
(30.049828 -0.001479034 0)
(30.049433 -0.0014400307 0)
(30.049053 -0.0014046187 0)
(30.04869 -0.0013724412 0)
(30.048342 -0.0013431678 0)
(30.048009 -0.0013164913 0)
(30.047691 -0.0012921326 0)
(30.047387 -0.0012698366 0)
(30.047096 -0.0012493754 0)
(30.046817 -0.0012305416 0)
(30.046551 -0.0012131497 0)
(30.046296 -0.0011970279 0)
(30.046052 -0.0011820208 0)
(30.045818 -0.0011679847 0)
(30.045593 -0.0011547939 0)
(30.045377 -0.0011423358 0)
(30.04517 -0.0011305142 0)
(30.04497 -0.0011192407 0)
(30.044777 -0.0011084365 0)
(30.044591 -0.0010980268 0)
(30.044411 -0.0010879463 0)
(30.044237 -0.0010781359 0)
(30.044068 -0.0010685478 0)
(30.043904 -0.0010591404 0)
(30.043745 -0.0010498828 0)
(30.043589 -0.0010407519 0)
(30.043437 -0.0010317314 0)
(30.043288 -0.0010228263 0)
(30.043142 -0.0010140142 0)
(30.043002 -0.0010054558 0)
(30.042855 -0.00099686896 0)
(30.042745 -0.00098994553 0)
(30.042546 -0.00098129913 0)
(30.000014 -8.8173144e-05 0)
(30.000126 -0.00028487836 0)
(30.000349 -0.00050540093 -9.8603609e-25)
(30.000679 -0.00074436042 0)
(30.00111 -0.00099828964 0)
(30.001639 -0.0012661865 0)
(30.002269 -0.0015475696 9.3602504e-25)
(30.002999 -0.0018418298 0)
(30.003831 -0.0021483289 9.0542671e-25)
(30.004764 -0.0024664457 0)
(30.005799 -0.002795493 0)
(30.006936 -0.0031346326 0)
(30.008176 -0.0034828217 -7.9795015e-25)
(30.009518 -0.0038387723 0)
(30.010961 -0.0042009151 0)
(30.012504 -0.0045673651 0)
(30.014144 -0.0049358975 -9.8787649e-25)
(30.015878 -0.0053039242 3.2166616e-25)
(30.017702 -0.0056684969 5.7643618e-25)
(30.019611 -0.0060263064 -5.3898818e-25)
(30.021597 -0.0063737131 0)
(30.023652 -0.0067067788 0)
(30.025766 -0.0070213348 7.9098571e-25)
(30.027928 -0.0073130524 3.4501044e-25)
(30.030126 -0.0075775508 -2.8884699e-25)
(30.032346 -0.0078105049 0)
(30.034571 -0.0080077872 -1.8627782e-25)
(30.036787 -0.0081656044 0)
(30.038976 -0.008280655 0)
(30.041121 -0.0083502659 0)
(30.043205 -0.0083725371 -8.5423819e-27)
(30.045209 -0.0083464467 8.5418253e-27)
(30.047118 -0.0082719436 0)
(30.048917 -0.0081499925 -1.027388e-25)
(30.050592 -0.0079825762 -4.0729842e-26)
(30.052132 -0.007772659 0)
(30.053526 -0.0075240972 -3.3104927e-26)
(30.054769 -0.0072415124 -3.3770839e-27)
(30.055856 -0.0069301279 3.6480109e-26)
(30.056785 -0.0065955833 6.6473017e-27)
(30.057558 -0.0062437347 0)
(30.058177 -0.0058804575 0)
(30.058649 -0.0055114563 7.1463767e-27)
(30.058981 -0.0051421034 0)
(30.059182 -0.0047772995 -3.7788345e-25)
(30.059263 -0.0044213743 0)
(30.059234 -0.0040780171 3.8548806e-25)
(30.059107 -0.0037502472 0)
(30.058895 -0.0034404094 0)
(30.058608 -0.0031502015 -3.7006023e-25)
(30.058259 -0.0028807179 3.6165978e-25)
(30.057857 -0.0026325109 0)
(30.057413 -0.0024056599 0)
(30.056937 -0.0021998448 0)
(30.056435 -0.0020144209 -1.5574947e-25)
(30.055917 -0.0018484884 -1.5044095e-25)
(30.055389 -0.00170096 0)
(30.054856 -0.0015706203 2.7892534e-25)
(30.054323 -0.0014561743 0)
(30.053794 -0.0013562933 0)
(30.053273 -0.0012696475 0)
(30.052762 -0.0011949366 -2.3241814e-25)
(30.052264 -0.0011309111 0)
(30.05178 -0.0010763878 0)
(30.051311 -0.0010302573 0)
(30.050859 -0.00099148949 0)
(30.050423 -0.00095913998 1.7762816e-25)
(30.050005 -0.00093235317 0)
(30.049603 -0.00091036106 0)
(30.049218 -0.00089247656 0)
(30.048849 -0.00087808333 -1.4189439e-25)
(30.048497 -0.00086662974 0)
(30.04816 -0.00085762511 0)
(30.047838 -0.00085064123 0)
(30.047531 -0.00084531032 0)
(30.047237 -0.00084132093 0)
(30.046956 -0.00083840505 0)
(30.046687 -0.00083632692 0)
(30.04643 -0.00083487259 0)
(30.046184 -0.00083385116 0)
(30.045948 -0.00083309774 0)
(30.045723 -0.00083247915 0)
(30.045506 -0.00083189081 0)
(30.045297 -0.00083125021 0)
(30.045097 -0.00083048493 0)
(30.044903 -0.00082952738 0)
(30.044717 -0.00082831286 0)
(30.044536 -0.00082678622 0)
(30.044362 -0.00082490551 0)
(30.044192 -0.00082264611 0)
(30.044028 -0.00081999849 0)
(30.043868 -0.00081696745 0)
(30.043712 -0.00081356954 0)
(30.04356 -0.00080983163 0)
(30.043411 -0.00080580562 0)
(30.043264 -0.00080155144 0)
(30.043124 -0.00079727221 0)
(30.042976 -0.00079304074 0)
(30.042866 -0.00078992014 0)
(30.042654 -0.00078696113 0)
(30.000012 -0.00014043298 0)
(30.000115 -0.00042774134 0)
(30.000331 -0.00072493485 9.8602763e-25)
(30.000657 -0.001031502 0)
(30.001084 -0.0013471268 0)
(30.001609 -0.0016724325 0)
(30.002235 -0.0020079922 4.6790592e-25)
(30.002962 -0.0023539484 -4.6788838e-25)
(30.00379 -0.0027101673 -9.0540136e-25)
(30.00472 -0.0030763361 0)
(30.005752 -0.0034519202 0)
(30.006888 -0.0038361007 0)
(30.008127 -0.0042277303 8.1233355e-25)
(30.009469 -0.0046253061 0)
(30.010914 -0.0050269383 0)
(30.01246 -0.0054303212 3.6805619e-25)
(30.014106 -0.0058327137 1.0101151e-24)
(30.015848 -0.0062309294 0)
(30.017683 -0.006621343 -5.908112e-25)
(30.019605 -0.0069999125 5.3895233e-25)
(30.021607 -0.007362218 -2.3540032e-25)
(30.023681 -0.0077035221 4.7554121e-25)
(30.025818 -0.0080188652 2.2254049e-25)
(30.028007 -0.0083031671 3.5527477e-25)
(30.030234 -0.0085513666 0)
(30.032485 -0.0087585823 4.9064996e-25)
(30.034746 -0.0089202795 0)
(30.036999 -0.0090324563 2.7900153e-25)
(30.039226 -0.0090918266 0)
(30.04141 -0.0090960024 7.7103087e-26)
(30.043532 -0.0090436391 -1.9340449e-26)
(30.045574 -0.0089345671 0)
(30.047519 -0.0087698645 -3.194634e-26)
(30.049352 -0.0085518854 3.1944654e-26)
(30.051057 -0.0082842215 0)
(30.052622 -0.0079716147 -2.2793906e-25)
(30.054037 -0.007619796 -6.8085549e-26)
(30.055295 -0.0072352891 6.8083841e-26)
(30.056392 -0.0068251731 0)
(30.057326 -0.006396813 8.4149023e-27)
(30.058098 -0.0059576032 3.5641895e-25)
(30.058711 -0.0055147091 -3.7069258e-25)
(30.059173 -0.0050748426 -3.7292794e-25)
(30.05949 -0.0046440759 7.7725818e-25)
(30.059674 -0.0042277042 3.9272589e-25)
(30.059734 -0.0038301513 0)
(30.059683 -0.0034549338 3.9951528e-25)
(30.059533 -0.0031046629 -3.8875797e-25)
(30.059297 -0.0027810846 -1.8789467e-25)
(30.058986 -0.0024851521 5.579591e-25)
(30.058613 -0.0022171151 -3.6166046e-25)
(30.058189 -0.0019766239 0)
(30.057724 -0.0017628356 0)
(30.057227 -0.001574521 0)
(30.056708 -0.0014101623 0)
(30.056173 -0.0012680457 1.5590035e-25)
(30.05563 -0.0011463407 6.3143639e-27)
(30.055083 -0.0010431675 4.2709045e-25)
(30.054538 -0.0009566503 0)
(30.054 -0.00088496088 0)
(30.05347 -0.00082635204 0)
(30.052952 -0.00077918285 2.324206e-25)
(30.052448 -0.00074193228 -2.2146558e-25)
(30.051959 -0.00071320453 0)
(30.051486 -0.00069173128 -1.9908653e-25)
(30.051031 -0.00067637142 0)
(30.050593 -0.00066611402 0)
(30.050172 -0.00066007247 0)
(30.049769 -0.00065747606 0)
(30.049384 -0.00065765286 0)
(30.049015 -0.00066001504 1.4189531e-25)
(30.048663 -0.00066404727 0)
(30.048326 -0.00066930814 -1.25931e-25)
(30.048005 -0.00067543126 0)
(30.047698 -0.00068212463 0)
(30.047405 -0.00068915381 0)
(30.047125 -0.00069632187 0)
(30.046857 -0.00070344996 0)
(30.046601 -0.00071037463 0)
(30.046357 -0.00071695436 0)
(30.046122 -0.0007230821 0)
(30.045897 -0.00072868778 0)
(30.045682 -0.00073373162 0)
(30.045474 -0.00073818621 0)
(30.045275 -0.00074202383 0)
(30.045083 -0.00074520963 0)
(30.044897 -0.00074770913 0)
(30.044718 -0.00074949697 0)
(30.044544 -0.00075056631 0)
(30.044376 -0.00075092906 0)
(30.044212 -0.00075061331 0)
(30.044053 -0.00074965526 0)
(30.043898 -0.00074809835 0)
(30.043746 -0.0007459931 0)
(30.043598 -0.00074341882 0)
(30.043452 -0.00074047268 0)
(30.043312 -0.00073737452 0)
(30.043164 -0.00073423674 0)
(30.043053 -0.00073190677 0)
(30.042849 -0.00072953223 0)
(30.000011 -0.00018665279 0)
(30.000109 -0.00056267637 0)
(30.000316 -0.00094662086 0)
(30.000632 -0.001341528 0)
(30.001047 -0.0017484852 0)
(30.001559 -0.0021681444 0)
(30.002172 -0.0026010118 0)
(30.002885 -0.0030472641 0)
(30.0037 -0.0035067381 0)
(30.004617 -0.0039789886 0)
(30.005637 -0.0044632676 0)
(30.00676 -0.004958468 0)
(30.007989 -0.0054630677 -1.2335989e-24)
(30.009322 -0.005975084 -4.0079298e-25)
(30.010761 -0.0064920313 0)
(30.012303 -0.0070108845 -2.1560446e-24)
(30.013948 -0.0075280485 6.837828e-25)
(30.015692 -0.0080393471 -1.5949055e-24)
(30.017533 -0.0085400226 8.9928863e-25)
(30.019465 -0.0090247642 0)
(30.021482 -0.0094877585 1.0162771e-24)
(30.023576 -0.0099227722 -4.5109975e-25)
(30.025737 -0.010323266 -8.0245885e-25)
(30.027956 -0.010682541 1.2979522e-26)
(30.030218 -0.010993913 0)
(30.03251 -0.011250931 -6.0135208e-25)
(30.034815 -0.0114476 5.0174359e-25)
(30.037116 -0.011578635 -2.7897896e-25)
(30.039395 -0.011639706 0)
(30.041633 -0.011627684 -1.911619e-27)
(30.043811 -0.011540844 1.40109e-26)
(30.045909 -0.011379035 4.2979717e-26)
(30.047909 -0.011143789 1.8317664e-25)
(30.049794 -0.010838351 0)
(30.051548 -0.010467635 0)
(30.053157 -0.010038092 2.279232e-25)
(30.054612 -0.0095574962 0)
(30.055903 -0.0090346747 -7.6914869e-26)
(30.057027 -0.0084791736 7.6913733e-26)
(30.05798 -0.0079008994 -3.3837716e-25)
(30.058765 -0.0073097608 1.1483255e-26)
(30.059385 -0.0067153246 -3.9359214e-25)
(30.059847 -0.0061265107 7.8523372e-25)
(30.060159 -0.0055513468 2.186332e-26)
(30.060332 -0.004996787 4.1366123e-25)
(30.060379 -0.004468598 8.0765374e-25)
(30.06031 -0.0039713134 1.8561023e-26)
(30.060141 -0.0035082504 3.8875275e-25)
(30.059883 -0.0030815677 -7.8173602e-25)
(30.05955 -0.0026923742 0)
(30.059154 -0.0023408502 0)
(30.058707 -0.0020263931 -7.243236e-25)
(30.05822 -0.0017477612 0)
(30.057702 -0.0015032163 0)
(30.057163 -0.001290656 0)
(30.056609 -0.0011077349 0)
(30.056048 -0.00095196814 0)
(30.055486 -0.00082081752 -2.8310261e-25)
(30.054926 -0.00071176368 -6.7706563e-25)
(30.054374 -0.00062235877 3.9186602e-25)
(30.053833 -0.00055027319 -2.4655146e-25)
(30.053304 -0.00049332181 -2.3418321e-25)
(30.052791 -0.00044948108 2.2146692e-25)
(30.052293 -0.00041689441 0)
(30.051814 -0.00039387835 -3.5300645e-28)
(30.051352 -0.00037892209 -1.8871685e-25)
(30.050908 -0.00037068867 0)
(30.050483 -0.00036800603 0)
(30.050076 -0.00036984999 0)
(30.049687 -0.00037532064 0)
(30.049315 -0.00038362753 0)
(30.04896 -0.00039408405 0)
(30.048622 -0.00040611046 1.2593115e-25)
(30.048299 -0.00041923284 -1.1825994e-25)
(30.04799 -0.00043306728 0)
(30.047696 -0.00044729515 0)
(30.047415 -0.00046163616 0)
(30.047147 -0.00047583657 0)
(30.04689 -0.00048967343 0)
(30.046645 -0.00050296766 0)
(30.04641 -0.000515592 0)
(30.046185 -0.00052746503 0)
(30.045969 -0.00053853125 0)
(30.045762 -0.00054874087 0)
(30.045562 -0.00055803892 0)
(30.04537 -0.00056637047 0)
(30.045184 -0.00057369342 0)
(30.045005 -0.00057999014 0)
(30.044832 -0.00058526954 0)
(30.044664 -0.0005895598 0)
(30.0445 -0.00059289632 0)
(30.044341 -0.00059531403 0)
(30.044186 -0.00059684945 0)
(30.044034 -0.0005975522 0)
(30.043886 -0.00059750512 0)
(30.04374 -0.00059682408 0)
(30.0436 -0.00059570853 0)
(30.043451 -0.00059432275 0)
(30.043341 -0.00059319128 0)
(30.043124 -0.00059206122 0)
(30.000011 -0.00023053195 0)
(30.000105 -0.00069357378 0)
(30.000305 -0.0011628326 0)
(30.000612 -0.001641303 0)
(30.001018 -0.00213016 0)
(30.001522 -0.0026300637 -9.8043591e-25)
(30.002126 -0.0031416776 0)
(30.00283 -0.0036654582 0)
(30.003637 -0.0042014842 0)
(30.004546 -0.0047494545 9.1081073e-25)
(30.00556 -0.0053086735 -8.8743548e-25)
(30.006678 -0.0058779955 1.7232144e-24)
(30.007903 -0.0064557526 8.2208298e-25)
(30.009235 -0.0070397022 0)
(30.010674 -0.0076269729 7.6913729e-25)
(30.01222 -0.0082140274 1.0900348e-24)
(30.013872 -0.0087966215 -6.6400937e-25)
(30.015628 -0.0093697954 2.9285743e-24)
(30.017485 -0.0099278773 1.2216799e-24)
(30.019438 -0.010464521 8.6266207e-25)
(30.021482 -0.010972766 -7.4829344e-25)
(30.023609 -0.011445148 9.3571709e-25)
(30.025809 -0.011873833 0)
(30.028072 -0.012250811 -7.1312887e-25)
(30.030384 -0.012568115 6.1796605e-25)
(30.032731 -0.012818093 -1.0151789e-24)
(30.035097 -0.012993692 -3.9097726e-25)
(30.037462 -0.013088784 0)
(30.039809 -0.013098472 0)
(30.042116 -0.013019398 -4.8213083e-27)
(30.044363 -0.012850004 6.3108073e-26)
(30.046529 -0.012590739 -6.8467006e-26)
(30.048594 -0.012244189 -4.2080669e-25)
(30.050539 -0.011815103 -2.581177e-25)
(30.052348 -0.011310316 2.0320301e-25)
(30.054004 -0.010738564 1.8272042e-26)
(30.055497 -0.010110188 -1.299186e-25)
(30.056818 -0.0094367591 -3.1458132e-25)
(30.057961 -0.0087306335 0)
(30.058925 -0.0080044764 3.638372e-25)
(30.05971 -0.0072707867 3.9622363e-25)
(30.060322 -0.0065414568 1.5564317e-24)
(30.060767 -0.0058273863 -7.8519927e-25)
(30.061056 -0.0051381838 2.6050262e-26)
(30.061201 -0.0044819518 -2.4683259e-24)
(30.061213 -0.0038651773 2.300402e-26)
(30.061108 -0.0032927002 -8.0352738e-25)
(30.0609 -0.0027677684 8.1401108e-25)
(30.060602 -0.0022921487 7.8172492e-25)
(30.060228 -0.001866291 0)
(30.059793 -0.001489512 7.5958388e-25)
(30.059308 -0.0011601987 1.4604624e-24)
(30.058785 -0.00087600795 7.1098784e-25)
(30.058233 -0.00063405883 6.8460426e-25)
(30.057662 -0.00043110691 0)
(30.05708 -0.00026369686 0)
(30.056493 -0.00012829008 -6.0203391e-25)
(30.055908 -2.1371067e-05 0)
(30.055328 6.0469998e-05 5.4445312e-25)
(30.054759 0.00012047504 -2.5925054e-25)
(30.054202 0.00016167297 2.4655025e-25)
(30.05366 0.00018685527 2.3418179e-25)
(30.053136 0.00019856422 -2.2228928e-25)
(30.052629 0.00019908987 -2.1050598e-25)
(30.052142 0.00019046923 1.9943906e-25)
(30.051674 0.00017449152 3.7917089e-28)
(30.051226 0.00015270939 0)
(30.050797 0.00012646133 -1.6804109e-25)
(30.050387 9.690141e-05 0)
(30.049996 6.5024423e-05 0)
(30.049623 3.1677483e-05 0)
(30.049268 -2.4362346e-06 0)
(30.048929 -3.6752918e-05 0)
(30.048606 -7.0829691e-05 1.1825997e-25)
(30.048298 -0.0001043137 -1.1053996e-25)
(30.048005 -0.00013691102 0)
(30.047725 -0.00016836779 0)
(30.047458 -0.00019847084 0)
(30.047203 -0.00022706007 0)
(30.046959 -0.00025403652 0)
(30.046725 -0.00027935588 0)
(30.046502 -0.00030300431 0)
(30.046288 -0.00032497236 0)
(30.046082 -0.00034523976 0)
(30.045884 -0.00036378043 0)
(30.045693 -0.00038058002 0)
(30.045509 -0.00039565362 0)
(30.045332 -0.00040905092 0)
(30.04516 -0.00042084701 0)
(30.044993 -0.000431123 0)
(30.044831 -0.00043995016 0)
(30.044673 -0.000447386 0)
(30.04452 -0.00045348614 0)
(30.044369 -0.0004583233 0)
(30.044222 -0.00046200249 0)
(30.044077 -0.00046467003 0)
(30.043937 -0.00046650167 0)
(30.043789 -0.00046774934 0)
(30.043678 -0.0004685203 0)
(30.043471 -0.00046950106 0)
(30.000011 -0.00027282112 0)
(30.000102 -0.00082007277 0)
(30.000296 -0.0013724957 0)
(30.000595 -0.0019333355 0)
(30.000992 -0.0025046176 0)
(30.001486 -0.0030877562 9.8041917e-25)
(30.002078 -0.0036839526 -9.78179e-25)
(30.002771 -0.0042940769 9.6223365e-25)
(30.003566 -0.004918514 0)
(30.004463 -0.0055571424 -9.1078351e-25)
(30.005465 -0.0062093243 1.7875172e-24)
(30.006574 -0.0068738552 -3.4721583e-24)
(30.00779 -0.0075488913 0)
(30.009116 -0.008231888 -2.0273824e-24)
(30.010552 -0.0089195362 -7.5184099e-25)
(30.012098 -0.0096077137 3.7871481e-25)
(30.013754 -0.010291445 0)
(30.015519 -0.010964876 2.5695311e-26)
(30.01739 -0.011621281 -1.5185644e-24)
(30.019364 -0.012253095 3.207252e-25)
(30.021434 -0.012851989 -2.1148867e-24)
(30.023595 -0.01340899 -1.3825407e-24)
(30.025836 -0.013914646 2.1488505e-24)
(30.028147 -0.014359251 0)
(30.030515 -0.014733115 -1.7374061e-24)
(30.032925 -0.015026894 8.7291404e-25)
(30.035359 -0.015231943 8.0452433e-25)
(30.037799 -0.015340719 1.1519516e-25)
(30.040223 -0.015347169 -5.5824337e-26)
(30.042611 -0.015247119 -1.0924991e-26)
(30.044939 -0.015038606 -3.6499644e-26)
(30.047184 -0.014722148 -9.9341452e-26)
(30.049326 -0.014300911 4.5230275e-25)
(30.051343 -0.013780746 3.1413644e-25)
(30.053215 -0.0131701 0)
(30.054928 -0.012479772 -1.3602222e-25)
(30.056467 -0.011722542 1.3601958e-25)
(30.057824 -0.010912683 6.4517863e-25)
(30.058991 -0.010065401 0)
(30.059967 -0.0091962191 -1.737408e-25)
(30.060755 -0.0083203807 -1.7519512e-24)
(30.061358 -0.0074522925 3.3226712e-26)
(30.061787 -0.0066050512 0)
(30.062051 -0.0057900775 3.0738891e-26)
(30.062164 -0.0050168727 -5.7927575e-26)
(30.06214 -0.0042928993 -1.0403357e-24)
(30.061995 -0.0036235706 2.097329e-25)
(30.061745 -0.0030123418 -8.1399498e-25)
(30.061405 -0.0024608774 0)
(30.060989 -0.0019692646 1.5972028e-24)
(30.060513 -0.0015362636 -7.5957781e-25)
(30.059989 -0.0011595633 -2.2353808e-24)
(30.059429 -0.00083603424 -7.1098571e-25)
(30.058843 -0.00056196625 -6.8460349e-25)
(30.058242 -0.00033327567 0)
(30.057632 -0.00014569081 6.3626286e-25)
(30.05702 5.1002812e-06 1.2091917e-24)
(30.056413 0.00012333203 0)
(30.055815 0.00021306526 5.5008103e-25)
(30.055229 0.00027812339 0)
(30.054658 0.00032204895 0)
(30.054105 0.00034808388 -2.3485046e-25)
(30.05357 0.00035915881 2.2228331e-25)
(30.053056 0.00035789225 1.4118836e-28)
(30.052563 0.00034659082 -1.9886636e-25)
(30.05209 0.00032726312 1.8833167e-25)
(30.051638 0.00030164594 -1.7739426e-25)
(30.051206 0.00027123878 1.6803739e-25)
(30.050794 0.00023733409 -1.5788484e-25)
(30.050402 0.00020103624 0)
(30.050028 0.00016326584 -1.402246e-25)
(30.049672 0.00012476866 0)
(30.049334 8.613492e-05 0)
(30.049011 4.783679e-05 0)
(30.048704 1.0267333e-05 1.1053863e-25)
(30.048412 -2.6234084e-05 -1.0311304e-25)
(30.048133 -6.1378905e-05 0)
(30.047867 -9.4944182e-05 0)
(30.047613 -0.00012678374 0)
(30.04737 -0.00015682363 0)
(30.047138 -0.00018503493 0)
(30.046916 -0.00021140003 0)
(30.046703 -0.00023588927 0)
(30.046498 -0.0002584604 0)
(30.046301 -0.00027907752 0)
(30.046112 -0.00029773401 0)
(30.045929 -0.00031446461 0)
(30.045753 -0.00032933934 0)
(30.045582 -0.00034244259 0)
(30.045416 -0.00035385146 0)
(30.045255 -0.00036362501 0)
(30.045098 -0.00037181108 0)
(30.044945 -0.00037846415 0)
(30.044796 -0.00038366223 0)
(30.044649 -0.00038751514 0)
(30.044505 -0.00039016222 0)
(30.044366 -0.00039176969 0)
(30.044217 -0.0003925094 0)
(30.044107 -0.00039261351 0)
(30.043892 -0.00039228294 0)
(30.00001 -0.00031377029 0)
(30.000099 -0.00094279245 0)
(30.000287 -0.0015766364 0)
(30.000578 -0.0022187093 -1.0247499e-24)
(30.000966 -0.0028714482 0)
(30.001449 -0.0035365736 -1.0047344e-24)
(30.002031 -0.0042154423 9.78159e-25)
(30.002712 -0.004909042 -9.6221189e-25)
(30.003494 -0.0056178686 0)
(30.004381 -0.0063418664 0)
(30.005372 -0.0070803943 -9.0008225e-25)
(30.006472 -0.0078321682 3.0934599e-24)
(30.007681 -0.0085951725 -1.2886599e-24)
(30.009003 -0.0093665811 1.2282718e-24)
(30.010438 -0.010142679 1.611941e-24)
(30.011987 -0.010918798 3.8567081e-25)
(30.013652 -0.01168926 0)
(30.015431 -0.012447344 -1.3336894e-24)
(30.017322 -0.013185279 0)
(30.019323 -0.013894281 -8.7480079e-25)
(30.021429 -0.014564629 1.3264408e-24)
(30.023634 -0.015185795 -1.4491496e-24)
(30.025928 -0.015746645 4.4321692e-25)
(30.0283 -0.016235693 -7.4933571e-25)
(30.030738 -0.016641426 2.8976528e-24)
(30.033226 -0.0169527 -8.2282771e-25)
(30.035746 -0.01715918 -1.0359753e-24)
(30.038277 -0.017251823 1.143364e-25)
(30.040798 -0.017223373 -1.1432688e-25)
(30.043284 -0.017068845 -2.1923698e-25)
(30.045712 -0.016785954 0)
(30.048055 -0.016375453 0)
(30.05029 -0.015841354 3.0530233e-25)
(30.052393 -0.015190992 -2.0664155e-25)
(30.054343 -0.014434899 4.4404036e-25)
(30.056122 -0.01358651 0)
(30.057715 -0.012661687 0)
(30.059111 -0.011678095 -6.8064832e-25)
(30.060303 -0.01065448 1.894735e-25)
(30.061291 -0.0096098904 -1.8947551e-25)
(30.062075 -0.008562919 1.6358507e-24)
(30.062663 -0.0075309986 -8.2533342e-25)
(30.063064 -0.0065298189 0)
(30.063292 -0.0055728837 -8.5577975e-25)
(30.06336 -0.0046712311 1.7197711e-24)
(30.063286 -0.0038333113 0)
(30.063087 -0.0030650094 1.7554568e-24)
(30.06278 -0.0023697902 0)
(30.062382 -0.0017489334 0)
(30.061911 -0.0012018266 -1.5971777e-24)
(30.061379 -0.00072629279 1.5843709e-24)
(30.060803 -0.00031892009 1.3134882e-24)
(30.060194 2.461561e-05 3.6429436e-25)
(30.059563 0.00030926274 1.2297525e-24)
(30.05892 0.00054033533 1.3466343e-24)
(30.058273 0.00072329854 -6.3623921e-25)
(30.057629 0.00086359223 -6.0714313e-25)
(30.056992 0.00096649189 5.8164085e-25)
(30.056369 0.0010370021 2.1337831e-27)
(30.055761 0.0010797919 0)
(30.055171 0.001099152 0)
(30.054602 0.0010989775 2.3484208e-25)
(30.054055 0.0010827573 0)
(30.053529 0.0010535774 6.8429691e-28)
(30.053027 0.0010141297 5.9486145e-25)
(30.052547 0.00096674135 -1.8688167e-25)
(30.052089 0.0009134158 1.7738882e-25)
(30.051654 0.00085587549 0)
(30.051239 0.00079558805 1.1946514e-27)
(30.050844 0.00073378245 -1.4761561e-25)
(30.05047 0.00067145582 1.4022084e-25)
(30.050113 0.00060939819 0)
(30.049775 0.00054823062 0)
(30.049453 0.00048845415 0)
(30.049146 0.00043048698 0)
(30.048855 0.00037467791 1.0311083e-25)
(30.048577 0.00032129953 -9.5720078e-26)
(30.048313 0.00027053428 0)
(30.048061 0.00022247692 0)
(30.04782 0.00017715827 0)
(30.04759 0.0001345811 0)
(30.04737 9.4749412e-05 0)
(30.047158 5.7675706e-05 0)
(30.046956 2.3367063e-05 0)
(30.046761 -8.1966163e-06 0)
(30.046574 -3.7075864e-05 0)
(30.046393 -6.3366804e-05 0)
(30.046218 -8.7180906e-05 0)
(30.046049 -0.00010862194 0)
(30.045885 -0.00012777347 0)
(30.045726 -0.00014470402 0)
(30.04557 -0.00015948416 0)
(30.045419 -0.00017220329 0)
(30.045271 -0.00018297934 0)
(30.045126 -0.00019194994 0)
(30.044982 -0.00019928639 0)
(30.044844 -0.00020510924 0)
(30.044697 -0.00020973187 0)
(30.044587 -0.00021277091 0)
(30.04438 -0.00021599141 0)
(30.00001 -0.00035349809 0)
(30.000096 -0.0010619739 0)
(30.000279 -0.0017752556 -5.1735193e-25)
(30.000562 -0.0024969018 1.542072e-24)
(30.00094 -0.003229682 0)
(30.001412 -0.0039756968 1.0047172e-24)
(30.001981 -0.0047366633 1.0062079e-24)
(30.002649 -0.0055139163 0)
(30.003418 -0.0063082763 0)
(30.004291 -0.0071199551 0)
(30.00527 -0.0079484933 -4.5473764e-25)
(30.006358 -0.0087926864 4.8754967e-25)
(30.007558 -0.0096504903 1.7222248e-24)
(30.008873 -0.010518919 1.6947373e-24)
(30.010305 -0.011393953 2.0558979e-24)
(30.011856 -0.012270454 -3.9363502e-25)
(30.013527 -0.013142092 0)
(30.015319 -0.014001299 0)
(30.017231 -0.014839246 0)
(30.019261 -0.015645872 1.8496008e-24)
(30.021405 -0.01640996 5.7270388e-25)
(30.023657 -0.01711928 3.4995045e-24)
(30.026008 -0.017760803 -1.2739797e-24)
(30.028449 -0.018321002 1.9141059e-24)
(30.030965 -0.018786225 -1.6445203e-24)
(30.033541 -0.019143164 1.0542756e-24)
(30.036157 -0.019379393 1.6583822e-24)
(30.038793 -0.019483943 0)
(30.041423 -0.01944793 -1.0669178e-25)
(30.044023 -0.019265152 2.0782114e-25)
(30.046564 -0.018932636 -6.4287293e-26)
(30.049019 -0.018451083 1.8423627e-25)
(30.051361 -0.017825155 -1.1302839e-24)
(30.053563 -0.01706357 -1.7266987e-25)
(30.055601 -0.016178962 -5.0440382e-25)
(30.057454 -0.015187527 2.6701846e-25)
(30.059106 -0.014108414 0)
(30.060544 -0.012962952 1.6285784e-25)
(30.061762 -0.011773732 1.8716612e-25)
(30.062758 -0.010563628 0)
(30.063535 -0.0093548398 9.3086581e-25)
(30.064101 -0.0081680281 1.8197407e-24)
(30.064466 -0.0070215953 1.8513402e-24)
(30.064648 -0.0059311627 0)
(30.064661 -0.0049092572 0)
(30.064527 -0.0039651998 -1.8468517e-24)
(30.064263 -0.0031051787 -1.755402e-24)
(30.06389 -0.0023324671 0)
(30.063426 -0.0016477501 0)
(30.062889 -0.0010495135 1.6795135e-24)
(30.062297 -0.0005344629 -1.5843519e-24)
(30.061663 -9.7937959e-05 1.5588844e-24)
(30.061 0.00026569006 1.4944295e-24)
(30.060321 0.00056266684 1.9367573e-25)
(30.059634 0.00079955532 -1.3545264e-24)
(30.058948 0.00098298669 -1.6524393e-25)
(30.05827 0.0011194619 0)
(30.057605 0.0012152006 -5.816156e-25)
(30.056956 0.001276034 -5.521704e-25)
(30.056328 0.0013073408 0)
(30.055721 0.0013140127 4.9572798e-25)
(30.055138 0.0013004418 4.6840548e-25)
(30.054579 0.0012705168 4.4230082e-25)
(30.054046 0.0012276361 2.0966081e-25)
(30.053537 0.0011747348 -2.2371e-27)
(30.053052 0.0011143305 5.5814336e-25)
(30.052592 0.0010485738 1.7496821e-25)
(30.052154 0.00097928884 0)
(30.051738 0.00090800094 1.5668102e-25)
(30.051344 0.00083595565 1.4761115e-25)
(30.05097 0.00076414526 0)
(30.050615 0.00069334992 0)
(30.050279 0.00062418683 0)
(30.049959 0.00055715507 0)
(30.049655 0.00049265681 0)
(30.049366 0.00043099894 0)
(30.049091 0.0003723872 9.5717583e-26)
(30.04883 0.00031693131 0)
(30.04858 0.00026467093 0)
(30.048342 0.0002156116 0)
(30.048115 0.0001697555 0)
(30.047897 0.00012710997 0)
(30.047689 8.7674118e-05 0)
(30.047489 5.1415892e-05 0)
(30.047297 1.8257848e-05 0)
(30.047112 -1.1917769e-05 0)
(30.046933 -3.9246148e-05 0)
(30.046761 -6.3852146e-05 0)
(30.046593 -8.5833815e-05 0)
(30.046431 -0.00010526557 0)
(30.046274 -0.00012221609 0)
(30.04612 -0.00013676845 0)
(30.045971 -0.00014903018 0)
(30.045824 -0.00015913282 0)
(30.04568 -0.00016721987 0)
(30.045538 -0.00017344504 0)
(30.045401 -0.00017793588 0)
(30.045255 -0.00018087243 0)
(30.045147 -0.00018225671 0)
(30.044936 -0.00018279761 0)
(30.00001 -0.00039201628 0)
(30.000093 -0.0011775921 0)
(30.00027 -0.0019681751 1.0606096e-24)
(30.000545 -0.0027675661 0)
(30.000913 -0.0035788834 0)
(30.001373 -0.0044046152 1.0353125e-24)
(30.001928 -0.0052468379 -1.0061892e-24)
(30.002581 -0.0061072029 -2.0152574e-24)
(30.003335 -0.0069868032 0)
(30.004193 -0.007886063 0)
(30.005157 -0.0088046624 0)
(30.006233 -0.0097414472 3.6462266e-26)
(30.007422 -0.010694321 0)
(30.008729 -0.011660125 1.7695665e-24)
(30.010157 -0.012634525 -3.2566718e-24)
(30.01171 -0.013611901 -2.8042465e-24)
(30.013388 -0.014585254 -3.8379183e-25)
(30.015196 -0.015546134 0)
(30.017131 -0.0164846 0)
(30.019194 -0.017389229 -1.8339736e-24)
(30.021381 -0.018247185 -5.8815549e-25)
(30.023687 -0.019044368 -6.1472601e-24)
(30.026106 -0.019765641 -3.6819498e-24)
(30.028625 -0.020395165 -1.5586163e-24)
(30.031233 -0.020916837 6.0659957e-25)
(30.033912 -0.021314831 1.5987729e-24)
(30.036642 -0.021574243 -1.3044112e-24)
(30.0394 -0.021681796 -3.5375398e-25)
(30.04216 -0.021626608 0)
(30.044894 -0.021400945 0)
(30.04757 -0.021000916 4.9216911e-26)
(30.050158 -0.020427052 -1.1736901e-25)
(30.052627 -0.019684694 5.0719573e-25)
(30.054945 -0.018784134 7.9999912e-25)
(30.057087 -0.017740479 7.4729944e-25)
(30.059028 -0.0165732 2.8810742e-25)
(30.060749 -0.015305398 0)
(30.062237 -0.013962817 0)
(30.063483 -0.012572689 0)
(30.064487 -0.011162505 0)
(30.065252 -0.0097588095 1.0763239e-25)
(30.065788 -0.00838612 -1.819606e-24)
(30.066109 -0.0070660548 -1.8512181e-24)
(30.066232 -0.0058167122 3.9170722e-24)
(30.066179 -0.0046523217 0)
(30.06597 -0.0035831572 5.6978207e-24)
(30.065628 -0.0026156796 0)
(30.065175 -0.0017528514 -3.684924e-24)
(30.064632 -0.00099458077 3.5750992e-24)
(30.064019 -0.00033822904 -5.1321273e-24)
(30.063353 0.00022085404 0)
(30.06265 0.00068881327 -1.5587995e-24)
(30.061925 0.0010728182 -1.4943438e-24)
(30.061189 0.0013806389 -1.4286389e-24)
(30.060451 0.0016202978 1.3786183e-24)
(30.05972 0.0017997825 1.3086189e-24)
(30.059002 0.001926826 0)
(30.058303 0.0020087476 0)
(30.057625 0.0020523442 0)
(30.056972 0.0020638315 -1.0481632e-24)
(30.056345 0.0020488121 -1.059485e-27)
(30.055745 0.0020122696 -4.6838662e-25)
(30.055173 0.0019585765 -2.3891305e-27)
(30.054629 0.0018915302 4.1456572e-25)
(30.054112 0.0018143939 -3.9373682e-25)
(30.053621 0.001729957 -3.4057021e-27)
(30.053156 0.001640584 8.6800927e-26)
(30.052715 0.0015482528 2.4764308e-25)
(30.052298 0.0014545871 0)