# vtk DataFile Version 3.0
Time Step 124, Physical Time = 0.001240s, Residual = 2.89e-03
ASCII
DATASET UNSTRUCTURED_GRID
POINTS 5000 float
0.318712 0.385257 0.000000
-0.318712 0.385257 0.000000
-0.318712 -0.385257 0.000000
0.318712 -0.385257 0.000000
0.093691 0.491144 0.000000
-0.093691 0.491144 0.000000
-0.093691 -0.491144 0.000000
0.093691 -0.491144 0.000000
0.404508 0.293893 0.000000
-0.404508 0.293893 0.000000
-0.404508 -0.293893 0.000000
0.404508 -0.293893 0.000000
0.438153 0.240877 0.000000
-0.438153 0.240877 0.000000
-0.438153 -0.240877 0.000000
0.438153 -0.240877 0.000000
0.500000 0.000000 0.000000
-0.500000 -0.000000 0.000000
0.364484 0.342274 0.000000
-0.364484 0.342274 0.000000
-0.364484 -0.342274 0.000000
0.364484 -0.342274 0.000000
0.496057 0.062667 0.000000
-0.496057 0.062667 0.000000
-0.496057 -0.062667 0.000000
0.496057 -0.062667 0.000000
0.212890 0.452414 0.000000
-0.212890 0.452414 0.000000
-0.212890 -0.452414 0.000000
0.212890 -0.452414 0.000000
0.154508 0.475528 0.000000
-0.154508 0.475528 0.000000
-0.154508 -0.475528 0.000000
0.154508 -0.475528 0.000000
0.267913 0.422164 0.000000
-0.267913 0.422164 0.000000
-0.267913 -0.422164 0.000000
0.267913 -0.422164 0.000000
0.031395 0.499013 0.000000
-0.031395 0.499013 0.000000
-0.031395 -0.499013 0.000000
0.031395 -0.499013 0.000000
0.464888 0.184062 0.000000
-0.464888 0.184062 0.000000
-0.464888 -0.184062 0.000000
0.464888 -0.184062 0.000000
0.484292 0.124345 0.000000
-0.484292 0.124345 0.000000
-0.484292 -0.124345 0.000000
0.484292 -0.124345 0.000000
-0.031454 0.499951 0.000000
0.438977 0.241329 0.000000
-0.268417 0.422957 0.000000
0.365169 0.342917 0.000000
-0.496990 -0.062784 0.000000
0.319311 -0.385981 0.000000
0.405269 0.294445 0.000000
-0.093867 0.492067 0.000000
0.500940 -0.000000 0.000000
-0.213290 0.453264 0.000000
-0.154799 0.476422 0.000000
0.031454 0.499951 0.000000
0.465762 0.184408 0.000000
0.319311 0.385981 0.000000
0.365169 -0.342917 0.000000
0.405269 -0.294445 0.000000
-0.365169 0.342917 0.000000
-0.319311 0.385981 0.000000
0.268417 0.422957 0.000000
0.213290 0.453264 0.000000
-0.319311 -0.385981 0.000000
0.154799 -0.476422 0.000000
-0.485202 -0.124579 0.000000
0.154799 0.476422 0.000000
0.268417 -0.422957 0.000000
0.093867 0.492067 0.000000
-0.031454 -0.499951 0.000000
-0.500940 0.000000 0.000000
0.438977 -0.241329 0.000000
-0.438977 -0.241329 0.000000
0.093867 -0.492067 0.000000
-0.485202 0.124579 0.000000
0.485202 0.124579 0.000000
-0.496990 0.062784 0.000000
0.213290 -0.453264 0.000000
0.031454 -0.499951 0.000000
0.496990 -0.062784 0.000000
0.465762 -0.184408 0.000000
-0.465762 -0.184408 0.000000
-0.213290 -0.453264 0.000000
-0.093867 -0.492067 0.000000
-0.405269 -0.294445 0.000000
0.496990 0.062784 0.000000
0.485202 -0.124579 0.000000
-0.154799 -0.476422 0.000000
-0.365169 -0.342917 0.000000
-0.465762 0.184408 0.000000
-0.438977 0.241329 0.000000
-0.405269 0.294445 0.000000
-0.268417 -0.422957 0.000000
-0.031523 0.501039 0.000000
0.439932 0.241854 0.000000
-0.269001 0.423877 0.000000
0.365964 0.343663 0.000000
-0.498071 -0.062921 0.000000
0.320005 -0.386820 0.000000
0.406150 0.295085 0.000000
-0.094071 0.493137 0.000000
0.502029 -0.000000 0.000000
-0.213754 0.454250 0.000000
-0.155136 0.477458 0.000000
0.031523 0.501039 0.000000
0.466775 0.184809 0.000000
0.365964 -0.343663 0.000000
0.406150 -0.295085 0.000000
0.320005 0.386820 0.000000
-0.365964 0.343663 0.000000
-0.320005 0.386820 0.000000
0.269001 0.423877 0.000000
0.213754 0.454250 0.000000
-0.320005 -0.386820 0.000000
0.155136 -0.477458 0.000000
-0.486257 -0.124850 0.000000
0.155136 0.477458 0.000000
0.269001 -0.423877 0.000000
0.094071 0.493137 0.000000
-0.031523 -0.501039 0.000000
-0.502029 0.000000 0.000000
0.439932 -0.241854 0.000000
-0.439932 -0.241854 0.000000
0.094071 -0.493137 0.000000
-0.486257 0.124850 0.000000
0.486257 0.124850 0.000000
-0.498071 0.062921 0.000000
0.213754 -0.454250 0.000000
0.031523 -0.501039 0.000000
0.466775 -0.184809 0.000000
0.498071 -0.062921 0.000000
-0.466775 -0.184809 0.000000
-0.213754 -0.454250 0.000000
-0.094071 -0.493137 0.000000
-0.406150 -0.295085 0.000000
0.498071 0.062921 0.000000
-0.155136 -0.477458 0.000000
0.486257 -0.124850 0.000000
-0.365964 -0.343663 0.000000
-0.466775 0.184809 0.000000
-0.439932 0.241854 0.000000
-0.406150 0.295085 0.000000
-0.269001 -0.423877 0.000000
-0.031604 0.502329 0.000000
0.441064 0.242477 0.000000
-0.269693 0.424969 0.000000
0.366906 0.344547 0.000000
-0.499353 -0.063083 0.000000
0.320829 -0.387816 0.000000
0.407196 0.295845 0.000000
-0.094313 0.494407 0.000000
0.503322 -0.000000 0.000000
-0.214304 0.455419 0.000000
-0.155535 0.478688 0.000000
0.031604 0.502329 0.000000
0.467977 0.185285 0.000000
0.366906 -0.344547 0.000000
0.407196 -0.295845 0.000000
0.320829 0.387816 0.000000
0.269693 0.424969 0.000000
-0.366906 0.344547 0.000000
-0.320829 0.387816 0.000000
0.214304 0.455419 0.000000
-0.320829 -0.387816 0.000000
0.155535 -0.478688 0.000000
-0.487509 -0.125171 0.000000
0.155535 0.478688 0.000000
0.269693 -0.424969 0.000000
-0.031604 -0.502329 0.000000
0.094313 0.494407 0.000000
-0.503322 0.000000 0.000000
0.441064 -0.242477 0.000000
-0.441064 -0.242477 0.000000
-0.487509 0.125171 0.000000
0.094313 -0.494407 0.000000
0.487509 0.125171 0.000000
-0.499353 0.063083 0.000000
0.214304 -0.455419 0.000000
0.031604 -0.502329 0.000000
0.467977 -0.185285 0.000000
0.499353 -0.063083 0.000000
-0.467977 -0.185285 0.000000
-0.214304 -0.455419 0.000000
-0.094313 -0.494407 0.000000
-0.407196 -0.295845 0.000000
0.499353 0.063083 0.000000
-0.155535 -0.478688 0.000000
0.487509 -0.125171 0.000000
-0.467977 0.185285 0.000000
-0.366906 -0.344547 0.000000
-0.441064 0.242477 0.000000
-0.407196 0.295845 0.000000
-0.269693 -0.424969 0.000000
-0.031700 0.503862 0.000000
0.442411 0.243217 0.000000
-0.270517 0.426266 0.000000
0.368026 0.345599 0.000000
-0.500877 -0.063276 0.000000
0.321809 -0.389000 0.000000
0.408439 0.296748 0.000000
-0.094601 0.495916 0.000000
0.504858 -0.000000 0.000000
-0.214958 0.456810 0.000000
-0.156010 0.480149 0.000000
0.031700 0.503862 0.000000
0.469405 0.185851 0.000000
0.368026 -0.345599 0.000000
0.408439 -0.296748 0.000000
0.321809 0.389000 0.000000
0.270517 0.426266 0.000000
-0.368026 0.345599 0.000000
-0.321809 0.389000 0.000000
0.214958 0.456810 0.000000
-0.321809 -0.389000 0.000000
0.156010 -0.480149 0.000000
0.270517 -0.426266 0.000000
-0.488997 -0.125553 0.000000
0.156010 0.480149 0.000000
-0.031700 -0.503862 0.000000
0.094601 0.495916 0.000000
-0.504858 0.000000 0.000000
0.442411 -0.243217 0.000000
-0.442411 -0.243217 0.000000
-0.488997 0.125553 0.000000
0.094601 -0.495916 0.000000
0.488997 0.125553 0.000000
-0.500877 0.063276 0.000000
0.214958 -0.456810 0.000000
0.031700 -0.503862 0.000000
0.469405 -0.185851 0.000000
0.500877 -0.063276 0.000000
-0.469405 -0.185851 0.000000
-0.214958 -0.456810 0.000000
-0.094601 -0.495916 0.000000
-0.408439 -0.296748 0.000000
-0.469405 0.185851 0.000000
0.500877 0.063276 0.000000
-0.156010 -0.480149 0.000000
0.488997 -0.125553 0.000000
-0.368026 -0.345599 0.000000
-0.442411 0.243217 0.000000
-0.408439 0.296748 0.000000
-0.270517 -0.426266 0.000000
-0.031815 0.505686 0.000000
0.444012 0.244098 0.000000
-0.271496 0.427809 0.000000
0.369358 0.346850 0.000000
-0.502691 -0.063505 0.000000
0.322974 -0.390408 0.000000
0.409918 0.297823 0.000000
-0.094943 0.497711 0.000000
0.506686 -0.000000 0.000000
-0.215736 0.458463 0.000000
-0.156575 0.481887 0.000000
0.031815 0.505686 0.000000
0.369358 -0.346850 0.000000
0.409918 -0.297823 0.000000
0.471105 0.186524 0.000000
0.322974 0.390408 0.000000
0.271496 0.427809 0.000000
-0.369358 0.346850 0.000000
-0.322974 0.390408 0.000000
0.215736 0.458463 0.000000
0.156575 -0.481887 0.000000
-0.322974 -0.390408 0.000000
0.271496 -0.427809 0.000000
-0.490768 -0.126008 0.000000
0.156575 0.481887 0.000000
-0.031815 -0.505686 0.000000
0.094943 0.497711 0.000000
-0.506686 0.000000 0.000000
0.444012 -0.244098 0.000000
-0.490768 0.126008 0.000000
-0.444012 -0.244098 0.000000
0.094943 -0.497711 0.000000
0.490768 0.126008 0.000000
-0.502691 0.063505 0.000000
0.215736 -0.458463 0.000000
0.031815 -0.505686 0.000000
0.471105 -0.186524 0.000000
-0.471105 -0.186524 0.000000
0.502691 -0.063505 0.000000
-0.215736 -0.458463 0.000000
-0.094943 -0.497711 0.000000
-0.409918 -0.297823 0.000000
-0.471105 0.186524 0.000000
0.502691 0.063505 0.000000
-0.156575 -0.481887 0.000000
0.490768 -0.126008 0.000000
-0.369358 -0.346850 0.000000
-0.444012 0.244098 0.000000
-0.409918 0.297823 0.000000
-0.271496 -0.427809 0.000000
-0.031952 0.507855 0.000000
0.445917 0.245145 0.000000
-0.272661 0.429644 0.000000
0.370943 0.348338 0.000000
-0.504847 -0.063777 0.000000
0.324359 -0.392083 0.000000
0.411676 0.299100 0.000000
-0.095351 0.499846 0.000000
0.508859 -0.000000 0.000000
-0.216662 0.460430 0.000000
-0.157246 0.483954 0.000000
0.031952 0.507855 0.000000
0.370943 -0.348338 0.000000
0.411676 -0.299100 0.000000
0.324359 0.392083 0.000000
0.473126 0.187324 0.000000
0.272661 0.429644 0.000000
-0.370943 0.348338 0.000000
-0.324359 0.392083 0.000000
0.216662 0.460430 0.000000
0.157246 -0.483954 0.000000
-0.324359 -0.392083 0.000000
0.272661 -0.429644 0.000000
0.157246 0.483954 0.000000
-0.492873 -0.126548 0.000000
-0.031952 -0.507855 0.000000
0.095351 0.499846 0.000000
0.445917 -0.245145 0.000000
-0.508859 0.000000 0.000000
-0.492873 0.126548 0.000000
-0.445917 -0.245145 0.000000
0.095351 -0.499846 0.000000
-0.504847 0.063777 0.000000
0.216662 -0.460430 0.000000
0.492873 0.126548 0.000000
0.031952 -0.507855 0.000000
0.473126 -0.187324 0.000000
-0.473126 -0.187324 0.000000
0.504847 -0.063777 0.000000
-0.216662 -0.460430 0.000000
-0.095351 -0.499846 0.000000
-0.473126 0.187324 0.000000
-0.411676 -0.299100 0.000000
-0.157246 -0.483954 0.000000
0.504847 0.063777 0.000000
0.492873 -0.126548 0.000000
-0.370943 -0.348338 0.000000
-0.445917 0.245145 0.000000
-0.411676 0.299100 0.000000
-0.272661 -0.429644 0.000000
0.318712 0.385257 0.100000
-0.318712 0.385257 0.100000
[...]
POINT_DATA 5000
SCALARS pressure float 1
LOOKUP_TABLE default
101783.128387
101783.128387
101783.128387
101783.128387
101783.128387
101783.128387
101783.128387
101783.128387
101783.128387
101783.128387
101783.128387
101783.128387
101783.128387
101783.128387
101783.128387
101783.128387
101325.000000
101325.000000
101325.000000
101325.000000
101325.000000
101325.000000
101325.000000
101325.000000
101325.000000
101325.000000
101325.000000
101325.000000
101325.000000
101325.000000
101325.000000
101325.000000
101325.000000
101325.000000
101325.000000
101325.000000
101325.000000
101325.000000
101325.000000
101325.000000
101325.000000
101325.000000
101325.000000
101325.000000
101325.000000
101325.000000
101325.000000
101325.000000
101325.000000
101325.000000
101323.631813
101324.681205
101324.020773
101324.356323
101324.978423
101324.184505
101324.525432
101323.674627
101325.000000
101323.875415
101323.757564
101323.631813
101324.813855
101324.184505
101324.356323
101324.525432
101324.356323
101324.184505
101324.020773
101323.875415
101324.184505
101323.757564
101324.915047
101323.757564
101324.020773
101323.674627
101323.631813
101325.000000
101324.681205
101324.681205
101323.674627
101324.915047
101324.915047
101324.978423
101323.875415
101323.631813
101324.978423
101324.813855
101324.813855
101323.875415
101323.674627
101324.525432
101324.978423
101324.915047
101323.757564
101324.356323
101324.813855
101324.681205
101324.525432
101324.020773
101322.054904
101324.313777
101322.892161
101323.614451
101324.953554
101323.244603
101323.978467
101322.147063
101325.000000
101322.579270
101322.325591
101322.054904
101324.599313
101323.614451
101323.978467
101323.244603
101323.614451
101323.244603
101322.892161
101322.579270
101323.244603
101322.325591
101324.817135
101322.325591
101322.892161
101322.147063
101322.054904
101325.000000
101324.313777
101324.313777
101322.147063
101324.817135
101324.817135
101324.953554
101322.579270
101322.054904
101324.599313
101324.953554
101324.599313
101322.579270
101322.147063
101323.978467
101324.953554
101322.325591
101324.817135
101323.614451
101324.599313
101324.313777
101323.978467
101322.892161
101320.197281
101323.880941
101321.562639
101322.740515
101324.924258
101322.137385
101323.334134
101320.347570
101325.000000
101321.052393
101320.638705
101320.197281
101324.346580
101322.740515
101323.334134
101322.137385
101321.562639
101322.740515
101322.137385
101321.052393
101322.137385
101320.638705
101324.701792
101320.638705
101321.562639
101320.197281
101320.347570
101325.000000
101323.880941
101323.880941
101324.701792
101320.347570
101324.701792
101324.924258
101321.052393
101320.197281
101324.346580
101324.924258
101324.346580
101321.052393
101320.347570
101323.334134
101324.924258
101320.638705
101324.701792
101324.346580
101322.740515
101323.880941
101323.334134
101321.562639
101318.007691
101323.370755
101319.995524
101321.710401
101324.889727
101320.832300
101322.574654
101318.226498
101325.000000
101319.252653
101318.650363
101318.007691
101324.048682
101321.710401
101322.574654
101320.832300
101319.995524
101321.710401
101320.832300
101319.252653
101320.832300
101318.650363
101319.995524
101324.565837
101318.650363
101318.007691
101318.226498
101325.000000
101323.370755
101323.370755
101324.565837
101318.226498
101324.565837
101324.889727
101319.252653
101318.007691
101324.048682
101324.889727
101324.048682
101319.252653
101318.226498
101322.574654
101324.048682
101324.889727
101318.650363
101324.565837
101321.710401
101323.370755
101322.574654
101319.995524
101315.429221
101322.769958
101318.150084
101320.497335
101324.849063
101319.295427
101321.680289
101315.728714
101325.000000
101317.133273
101316.308883
101315.429221
101320.497335
101321.680289
101323.697875
101319.295427
101318.150084
101320.497335
101319.295427
101317.133273
101316.308883
101319.295427
101318.150084
101324.405736
101316.308883
101315.429221
101315.728714
101325.000000
101322.769958
101324.405736
101322.769958
101315.728714
101324.405736
101324.849063
101317.133273
101315.429221
101323.697875
101323.697875
101324.849063
101317.133273
101315.728714
101321.680289
101323.697875
101324.849063
101316.308883
101324.405736
101320.497335
101322.769958
101321.680289
101318.150084
101312.399023
101322.063906
101315.981336
101319.071749
101324.801275
101317.489306
101320.629237
101312.793339
101325.000000
101314.642593
101313.557194
101312.399023
101319.071749
101320.629237
101317.489305
101323.285611
101315.981336
101319.071749
101317.489305
101314.642593
101313.557194
101317.489305
101315.981336
101313.557194
101324.217587
101312.399023
101312.793339
101322.063906
101325.000000
101324.217587
101322.063906
101312.793339
101324.801275
101314.642593
101324.217587
101312.399023
101323.285611
101323.285611
101324.801275
101314.642593
101312.793339
101323.285611
101320.629237
101313.557194
101324.801275
101324.217587
101319.071749
101322.063906
101320.629237
101315.981336
101783.128387
101783.128387
101783.128387
101783.128387
101783.128387
101783.128387
101783.128387
101783.128387
101783.128387
101783.128387
101783.128387
101783.128387
101783.128387
101783.128387
101783.128387
101783.128387
101325.000000
101325.000000
101325.000000
101325.000000
101325.000000
101325.000000
101325.000000
101325.000000
101325.000000
101325.000000
101325.000000
101325.000000
101325.000000
101325.000000
101325.000000
101325.000000
101325.000000
101325.000000
101325.000000
101325.000000
101325.000000
101325.000000
101325.000000
101325.000000
101325.000000
101325.000000
101325.000000
101325.000000
101325.000000
101325.000000
101325.000000
101325.000000
101325.000000
101325.000000
101323.631813
101324.681205
101323.674627
101324.525432
101324.525432
101323.757564
101324.356323
101323.757564
101324.020773
101323.875415
101324.020773
101324.184505
101324.681205
101323.631813
101324.978423
101323.757564
101324.356323
101324.813855
101324.915047
101323.875415
101324.184505
101323.674627
101324.184505
101324.020773
101324.915047
101324.681205
101325.000000
101323.875415
101324.915047
101323.674627
101323.875415
101324.813855
101324.813855
101325.000000
101324.978423
101324.356323
101323.631813
101323.631813
101324.184505
101324.978423
101324.681205
101324.813855
101324.525432
101324.978423
101323.757564
101323.674627
101324.020773
101324.915047
101324.356323
101324.525432
101308.847645
101321.236416
101317.400970
101313.439575
101324.745268
101315.372540
101319.397410
101309.353092
101325.000000
101311.723529
101310.332228
101308.847645
101317.400970
101319.397410
101315.372540
101322.802438
101313.439575
101311.723529
101317.400970
101315.372540
101310.332228
101315.372540
101313.439575
101310.332228
101323.997077
101308.847645
101309.353092
101321.236416
101325.000000
101323.997077
101321.236416
101309.353092
101311.723529
101324.745268
101323.997077
101308.847645
101322.802438
101322.802438
101324.745268
101311.723529
101322.802438
101309.353092
101319.397410
101310.332228
101324.745268
101323.997077
101317.400970
101321.236416
101319.397410
101313.439575
101322.054904
101324.313777
101322.147063
101323.978467
101323.978467
101323.614451
101322.325591
101322.325591
101322.892161
101322.579270
101322.892161
101323.244603
101324.313777
101322.054904
101324.953554
101322.325591
101323.614451
101324.599313
101324.817135
101322.579270
101323.244603
101322.147063
101323.244603
101322.892161
101324.817135
101324.313777
101322.579270
101325.000000
101324.817135
101322.147063
101322.579270
101324.599313
101324.599313
101324.953554
101325.000000
101323.614451
101322.054904
101322.054904
101323.244603
101324.953554
101324.313777
101324.599313
101323.978467
101324.953554
101322.325591
101322.147063
101322.892161
101324.817135
101323.614451
101323.978467
101320.197281
101323.880941
101320.347570
101323.334134
101323.334134
101322.740515
101320.638705
101320.638705
101321.562639
101321.052393
101321.562639
101322.137385
101323.880941
101324.924258
101320.197281
101320.638705
101322.740515
101324.701792
101324.346580
101321.052393
101322.137385
101320.347570
101322.137385
101321.562639
101324.701792
101323.880941
101321.052393
101325.000000
101324.701792
101320.347570
101321.052393
101324.346580
101324.346580
101324.924258
101325.000000
101322.740515
101320.197281
101320.197281
101322.137385
101324.924258
101323.880941
101324.346580
101323.334134
101324.924258
101320.638705
101320.347570
101321.562639
101324.701792
101322.740515
101323.334134
101304.695221
101320.268880
101315.447422
101310.467638
101324.679782
101312.897527
101317.957104
101305.330608
101325.000000
101308.310433
101306.561459
101304.695221
101317.957104
101315.447422
101312.897527
101322.237492
101310.467638
101308.310433
101315.447422
101312.897527
101306.561459
101310.467638
101312.897527
101306.561459
101323.739247
101304.695221
101320.268880
101305.330608
101325.000000
101323.739247
101320.268880
101305.330608
101308.310433
101324.679782
101323.739247
101304.695221
101322.237492
101322.237492
101324.679782
101308.310433
101322.237492
101305.330608
101317.957104
101306.561458
101324.679782
101320.268880
101323.739247
101315.447422
101310.467638
101317.957104
101318.007691
101323.370755
101318.226498
101322.574654
101322.574654
101321.710401
101318.650363
101318.650363
101319.995524
101319.995524
101319.252653
101320.832300
101323.370755
101324.889727
101318.007691
101318.650363
101321.710401
101324.565837
101324.048682
101319.252653
101320.832300
101318.226498
101320.832300
101319.995524
101324.565837
101323.370755
101319.252653
101325.000000
101324.565837
101318.226498
101319.252653
101324.048682
101324.048682
101324.889727
101325.000000
101321.710401
101318.007691
101318.007691
101320.832300
101324.889727
101323.370755
101324.048682
101322.574654
101324.889727
101318.650363
101318.226498
101319.995524
101324.565837
101321.710401
101322.574654
101315.429221
101322.769958
101321.680289
101315.728714
101321.680289
101320.497335
101316.308883
101316.308883
101318.150084
101318.150084
101317.133273
101319.295427
101322.769958
101324.849063
101316.308883
101315.429221
101320.497335
101324.405736
101317.133273
101323.697875
101319.295427
101315.728714
101318.150084
101319.295427
101324.405736
101322.769958
101317.133273
101325.000000
101315.728714
101324.405736
101317.133273
101323.697875
101323.697875
101324.849063
101325.000000
101320.497335
101315.429221
101315.429221
101319.295427
101324.849063
101322.769958
101323.697875
101321.680289
101316.308883
101315.728714
101324.849063
101318.150084
101324.405736
101320.497335
101321.680289
101299.848895
101319.139660
101313.167421
101306.999066
101324.603352
101310.008919
101316.276112
101300.635935
101325.000000
101304.326982
101302.160564
101299.848895
101316.276112
101313.167421
101310.008919
101306.999066
101321.578139
101304.326982
101313.167421
101310.008919
101302.160564
101306.999066
101310.008919
101302.160564
101323.438331
101299.848895
101319.139660
101300.635935
101325.000000
101323.438331
101300.635935
101319.139660
101304.326982
101324.603352
101323.438331
101299.848895
101321.578139
101321.578139
101321.578139
101304.326982
101324.603352
101300.635935
101302.160563
101316.276112
101324.603352
101319.139660
101323.438331
101313.167421
101306.999066
101316.276112
101312.399023
101322.063906
101320.629237
101312.793339
101320.629237
101319.071749
101313.557194
101313.557194
101315.981336
101315.981336
101314.642593
101317.489305
101322.063906
101324.801275
101313.557194
101312.399023
101319.071749
101324.217587
101314.642593
101323.285611
101317.489305
101315.981336
101312.793339
101317.489305
101324.217587
101322.063906
101314.642593
101325.000000
101312.793339
101324.217587
101314.642593
101323.285611
101323.285611
101324.801275
101325.000000
101319.071749
101312.399023
101312.399023
101317.489305
101323.285611
101322.063906
101324.801275
101320.629237
101313.557194
101312.793339
101315.981336
101324.801275
101324.217587
101319.071749
101320.629237
101308.847645
101321.236416
101319.397410
101319.397410
101317.400970
101309.353092
101310.332228
101310.332228
101313.439575
101313.439575
101311.723529
101315.372540
101321.236416
101324.745268
101310.332228
101308.847645
101317.400970
101323.997077
101311.723529
101322.802438
101315.372540
101313.439575
101309.353092
101323.997077
101321.236416
101315.372540
101311.723529
101309.353092
101325.000000
101311.723529
101323.997077
101322.802438
101322.802438
101324.745268
101325.000000
101308.847645
101317.400970
101308.847645
101315.372540
101322.802438
101321.236416
101324.745268
101319.397410
101310.332228
101309.353092
101313.439575
101324.745268
101323.997077
101317.400970
101319.397410
101294.227233
101317.829783
101310.522657
101302.975579
101324.514695
101306.658180
101314.326187
101295.190189
101325.000000
101299.706242
101297.055596
101294.227233
101314.326187
101310.522656
101306.658180
101302.975579
101299.706242
101320.813301
101297.055596
101310.522656
101306.658180
101302.975579
101297.055596
101306.658180
101323.089274
101317.829783
101294.227233
101295.190189
101325.000000
101323.089274
101295.190189
101317.829783
101299.706242
101324.514695
101323.089274
101294.227233
101320.813301
101320.813301
101320.813301
101299.706242
101324.514695
101295.190189
101297.055596
101314.326187
101317.829783
101324.514695
101323.089274
101310.522656
101302.975579
101314.326187
101304.695221
101320.268880
101317.957104
101317.957104
101315.447422
101306.561459
101305.330608
101306.561459
101310.467638
101310.467638
101312.897527
101308.310433
101320.268880
101306.561459
101324.679782
101304.695221
101315.447422
101323.739247
101308.310433
101322.237492
101312.897527
101310.467638
101305.330608
101320.268880
101323.739247
101312.897527
101308.310433
101305.330608
101308.310433
101325.000000
101323.739247
101322.237492
101322.237492
101324.679782
101325.000000
101304.695221
101304.695221
101315.447422
101322.237492
101312.897527
101320.268880
101324.679782
101317.957104
101306.561458
101305.330608
101310.467638
101323.739247
101324.679782
101315.447422
101317.957104
101287.737847
101316.317722
101307.469663
101298.331051
101324.412354
101302.790243
101312.075285
101288.903872
101325.000000
101291.162657
101294.372274
101287.737847
101312.075285
101307.469662
101302.790243
101298.331051
101294.372274
101319.930406
101291.162657
101298.331051
101307.469662
101302.790243
101291.162657
101322.686338
101316.317722
101302.790243
101287.737847
101288.903872
101322.686338
101325.000000
101288.903872
101316.317722
101294.372274
101324.412354
101287.737847
101322.686338
101319.930406
101319.930406
101319.930406
101294.372274
101288.903872
101324.412354
101291.162657
101312.075285
101316.317722
101324.412354
101322.686338
101307.469662
101298.331051
101312.075285
101299.848895
101319.139660
101316.276112
101316.276112
101313.167421
101302.160564
101300.635935
101302.160564
101306.999066
101306.999066
101310.008919
101304.326982
101319.139660
101302.160564
101324.603352
101313.167421
101323.438331
101299.848895
101304.326982
101321.578139
101310.008919
101306.999066
101319.139660
101300.635935
101323.438331
101304.326982
101310.008919
101304.326982
101300.635935
101325.000000
101323.438331
101321.578139
101321.578139
101324.603352
101325.000000
101299.848895
101299.848895
101313.167421
101321.578139
101310.008919
101319.139660
101324.603352
101302.160563
101316.276112
101300.635935
101306.999066
101323.438331
101324.603352
101313.167421
101316.276112
101294.227233
101317.829783
101314.326187
101297.055596
101310.522657
101314.326187
101295.190189
101297.055596
101302.975579
101302.975579
101306.658180
101317.829783
101299.706242
101297.055596
101324.514695
101310.522656
101323.089274
101294.227233
101299.706242
101306.658180
101302.975579
101320.813301
101317.829783
101295.190189
101323.089274
101299.706242
101299.706242
101306.658180
101295.190189
101325.000000
101323.089274
101320.813301
101320.813301
101324.514695
101294.227233
101294.227233
101325.000000
101320.813301
101310.522656
101306.658180
101317.829783
101324.514695
101297.055596
101302.975579
101295.190189
101314.326187
101323.089274
101324.514695
101310.522656
101314.326187
101280.282284
101314.580537
101303.962121
101292.995019
101298.346424
101324.294775
101309.489256
101281.681612
101325.000000
101284.392344
101288.244154
101309.489256
101280.282284
101303.962121
101298.346424
101288.244154
101292.995019
101318.916061
101284.392344
101292.995019
101284.392344
101303.962121
101314.580537
101298.346424
101322.223411
101280.282284
101298.346424
101281.681612
101322.223411
101325.000000
101281.681612
101314.580537
101288.244154
101324.294775
101280.282284
101322.223411
101318.916061
101318.916061
101318.916061
101288.244154
101281.681612
101284.392344
101324.294775
101314.580537
101309.489256
101324.294775
101322.223411
101292.995019
101303.962121
101309.489256
101287.737847
101316.317722
101312.075285
101291.162657
101307.469662
101312.075285
101288.903872
101291.162657
101298.331051
101298.331051
101302.790243
101316.317722
101291.162657
101294.372274
101324.412354
101322.686338
101307.469662
101294.372274
101287.737847
101298.331051
101302.790243
101316.317722
101319.930406
101294.372274
101322.686338
101294.372274
101288.903872
101302.790243
101288.903872
101319.930406
101319.930406
101325.000000
101322.686338
101324.412354
101287.737847
101287.737847
101319.930406
101325.000000
101307.469662
101316.317722
101302.790243
101324.412354
101291.162657
101298.331051
101288.903872
101312.075285
101322.686338
101324.412354
101307.469662
101312.075285
101271.742501
101312.590722
101299.944498
101286.882998
101293.256366
101324.160097
101306.527155
101273.409060
101325.000000
101306.527155
101299.944498
101276.637463
101281.224856
101271.742500
101281.224856
101293.256366
101286.882998
101276.637463
101286.882998
101317.754206
101312.590722
101276.637463
101321.693164
101299.944498
101293.256366
101271.742500
101293.256366
101321.693164
101273.409060
101325.000000
101273.409060
101312.590722
101281.224856
101324.160097
101317.754206
101271.742500
101317.754206
101321.693164
101281.224856
101317.754206
101273.409060
101276.637463
101324.160097
101312.590722
101306.527154
101324.160097
101286.882998
101321.693164
101299.944498
101306.527154
101280.282284
101314.580537
101309.489256
101284.392344
101303.962121
101309.489256
101281.681612
101292.995019
101284.392344
101298.346424
101292.995019
101314.580537
101284.392344
101322.223411
101324.294775
101303.962121
101288.244154
101288.244154
101280.282284
101292.995019
101298.346424
101288.244154
101314.580537
101288.244154
101322.223411
101318.916061
101281.681612
101281.681612
101298.346424
101318.916061
101318.916061
101322.223411
101325.000000
101324.294775
101318.916061
101280.282284
101280.282284
101325.000000
101314.580537
101303.962121
101298.346424
101284.392344
101324.294775
101292.995019
101281.681612
101309.489256
101322.223411
101324.294775
101303.962121
101309.489256
101262.071755
101310.337388
101295.394803
101279.961534
101287.492208
101324.007584
101303.172769
101264.040935
101325.000000
101303.172769
101295.394803
101273.275961
101287.492208
101279.961534
101267.855567
101262.071754
101273.275961
101267.855567
101279.961534
101310.337388
101267.855567
101316.438481
101321.092693
101262.071754
101295.394803
101287.492208
101287.492208
101321.092693
101264.040935
101325.000000
101264.040935
101310.337388
101273.275961
101316.438480
101324.007584
101262.071754
101273.275961
101316.438481
101321.092693
101316.438481
101267.855567
101264.040935
101310.337388
101324.007584
101303.172769
101279.961534
101324.007584
101321.092693
101295.394803
101303.172769
101271.742501
101306.527155
101312.590722
101276.637463
101299.944498
101306.527155
101273.409060
101286.882998
101293.256366
101276.637463
101312.590722
101286.882998
101276.637463
101321.693164
101299.944498
101324.160097
101281.224856
101281.224856
101271.742500
101281.224856
101286.882998
101293.256366
101312.590722
101281.224856