# vtk DataFile Version 3.0
Time Step 188, Physical Time = 0.001880s, Residual = 1.53e-03
ASCII
DATASET UNSTRUCTURED_GRID
POINTS 5000 float
0.318712 0.385257 0.000000
-0.318712 0.385257 0.000000
-0.318712 -0.385257 0.000000
0.318712 -0.385257 0.000000
0.093691 0.491144 0.000000
-0.093691 0.491144 0.000000
-0.093691 -0.491144 0.000000
0.093691 -0.491144 0.000000
0.404508 0.293893 0.000000
-0.404508 0.293893 0.000000
-0.404508 -0.293893 0.000000
0.404508 -0.293893 0.000000
0.438153 0.240877 0.000000
-0.438153 0.240877 0.000000
-0.438153 -0.240877 0.000000
0.438153 -0.240877 0.000000
0.500000 0.000000 0.000000
-0.500000 -0.000000 0.000000
0.364484 0.342274 0.000000
-0.364484 0.342274 0.000000
-0.364484 -0.342274 0.000000
0.364484 -0.342274 0.000000
0.496057 0.062667 0.000000
-0.496057 0.062667 0.000000
-0.496057 -0.062667 0.000000
0.496057 -0.062667 0.000000
0.212890 0.452414 0.000000
-0.212890 0.452414 0.000000
-0.212890 -0.452414 0.000000
0.212890 -0.452414 0.000000
0.154508 0.475528 0.000000
-0.154508 0.475528 0.000000
-0.154508 -0.475528 0.000000
0.154508 -0.475528 0.000000
0.267913 0.422164 0.000000
-0.267913 0.422164 0.000000
-0.267913 -0.422164 0.000000
0.267913 -0.422164 0.000000
0.031395 0.499013 0.000000
-0.031395 0.499013 0.000000
-0.031395 -0.499013 0.000000
0.031395 -0.499013 0.000000
0.464888 0.184062 0.000000
-0.464888 0.184062 0.000000
-0.464888 -0.184062 0.000000
0.464888 -0.184062 0.000000
0.484292 0.124345 0.000000
-0.484292 0.124345 0.000000
-0.484292 -0.124345 0.000000
0.484292 -0.124345 0.000000
-0.031454 0.499951 0.000000
0.438977 0.241329 0.000000
-0.268417 0.422957 0.000000
0.365169 0.342917 0.000000
-0.496990 -0.062784 0.000000
0.319311 -0.385981 0.000000
0.405269 0.294445 0.000000
-0.093867 0.492067 0.000000
0.500940 -0.000000 0.000000
-0.213290 0.453264 0.000000
-0.154799 0.476422 0.000000
0.031454 0.499951 0.000000
0.465762 0.184408 0.000000
0.319311 0.385981 0.000000
0.365169 -0.342917 0.000000
0.405269 -0.294445 0.000000
-0.365169 0.342917 0.000000
-0.319311 0.385981 0.000000
0.268417 0.422957 0.000000
0.213290 0.453264 0.000000
-0.319311 -0.385981 0.000000
0.154799 -0.476422 0.000000
-0.485202 -0.124579 0.000000
0.154799 0.476422 0.000000
0.268417 -0.422957 0.000000
0.093867 0.492067 0.000000
-0.031454 -0.499951 0.000000
-0.500940 0.000000 0.000000
0.438977 -0.241329 0.000000
-0.438977 -0.241329 0.000000
0.093867 -0.492067 0.000000
-0.485202 0.124579 0.000000
0.485202 0.124579 0.000000
-0.496990 0.062784 0.000000
0.213290 -0.453264 0.000000
0.031454 -0.499951 0.000000
0.496990 -0.062784 0.000000
0.465762 -0.184408 0.000000
-0.465762 -0.184408 0.000000
-0.213290 -0.453264 0.000000
-0.093867 -0.492067 0.000000
-0.405269 -0.294445 0.000000
0.496990 0.062784 0.000000
0.485202 -0.124579 0.000000
-0.154799 -0.476422 0.000000
-0.365169 -0.342917 0.000000
-0.465762 0.184408 0.000000
-0.438977 0.241329 0.000000
-0.405269 0.294445 0.000000
-0.268417 -0.422957 0.000000
-0.031523 0.501039 0.000000
0.439932 0.241854 0.000000
-0.269001 0.423877 0.000000
0.365964 0.343663 0.000000
-0.498071 -0.062921 0.000000
0.320005 -0.386820 0.000000
0.406150 0.295085 0.000000
-0.094071 0.493137 0.000000
0.502029 -0.000000 0.000000
-0.213754 0.454250 0.000000
-0.155136 0.477458 0.000000
0.031523 0.501039 0.000000
0.466775 0.184809 0.000000
0.365964 -0.343663 0.000000
0.406150 -0.295085 0.000000
0.320005 0.386820 0.000000
-0.365964 0.343663 0.000000
-0.320005 0.386820 0.000000
0.269001 0.423877 0.000000
0.213754 0.454250 0.000000
-0.320005 -0.386820 0.000000
0.155136 -0.477458 0.000000
-0.486257 -0.124850 0.000000
0.155136 0.477458 0.000000
0.269001 -0.423877 0.000000
0.094071 0.493137 0.000000
-0.031523 -0.501039 0.000000
-0.502029 0.000000 0.000000
0.439932 -0.241854 0.000000
-0.439932 -0.241854 0.000000
0.094071 -0.493137 0.000000
-0.486257 0.124850 0.000000
0.486257 0.124850 0.000000
-0.498071 0.062921 0.000000
0.213754 -0.454250 0.000000
0.031523 -0.501039 0.000000
0.466775 -0.184809 0.000000
0.498071 -0.062921 0.000000
-0.466775 -0.184809 0.000000
-0.213754 -0.454250 0.000000
-0.094071 -0.493137 0.000000
-0.406150 -0.295085 0.000000
0.498071 0.062921 0.000000
-0.155136 -0.477458 0.000000
0.486257 -0.124850 0.000000
-0.365964 -0.343663 0.000000
-0.466775 0.184809 0.000000
-0.439932 0.241854 0.000000
-0.406150 0.295085 0.000000
-0.269001 -0.423877 0.000000
-0.031604 0.502329 0.000000
0.441064 0.242477 0.000000
-0.269693 0.424969 0.000000
0.366906 0.344547 0.000000
-0.499353 -0.063083 0.000000
0.320829 -0.387816 0.000000
0.407196 0.295845 0.000000
-0.094313 0.494407 0.000000
0.503322 -0.000000 0.000000
-0.214304 0.455419 0.000000
-0.155535 0.478688 0.000000
0.031604 0.502329 0.000000
0.467977 0.185285 0.000000
0.366906 -0.344547 0.000000
0.407196 -0.295845 0.000000
0.320829 0.387816 0.000000
0.269693 0.424969 0.000000
-0.366906 0.344547 0.000000
-0.320829 0.387816 0.000000
0.214304 0.455419 0.000000
-0.320829 -0.387816 0.000000
0.155535 -0.478688 0.000000
-0.487509 -0.125171 0.000000
0.155535 0.478688 0.000000
0.269693 -0.424969 0.000000
-0.031604 -0.502329 0.000000
0.094313 0.494407 0.000000
-0.503322 0.000000 0.000000
0.441064 -0.242477 0.000000
-0.441064 -0.242477 0.000000
-0.487509 0.125171 0.000000
0.094313 -0.494407 0.000000
0.487509 0.125171 0.000000
-0.499353 0.063083 0.000000
0.214304 -0.455419 0.000000
0.031604 -0.502329 0.000000
0.467977 -0.185285 0.000000
0.499353 -0.063083 0.000000
-0.467977 -0.185285 0.000000
-0.214304 -0.455419 0.000000
-0.094313 -0.494407 0.000000
-0.407196 -0.295845 0.000000
0.499353 0.063083 0.000000
-0.155535 -0.478688 0.000000
0.487509 -0.125171 0.000000
-0.467977 0.185285 0.000000
-0.366906 -0.344547 0.000000
-0.441064 0.242477 0.000000
-0.407196 0.295845 0.000000
-0.269693 -0.424969 0.000000
-0.031700 0.503862 0.000000
0.442411 0.243217 0.000000
-0.270517 0.426266 0.000000
0.368026 0.345599 0.000000
-0.500877 -0.063276 0.000000
0.321809 -0.389000 0.000000
0.408439 0.296748 0.000000
-0.094601 0.495916 0.000000
0.504858 -0.000000 0.000000
-0.214958 0.456810 0.000000
-0.156010 0.480149 0.000000
0.031700 0.503862 0.000000
0.469405 0.185851 0.000000
0.368026 -0.345599 0.000000
0.408439 -0.296748 0.000000
0.321809 0.389000 0.000000
0.270517 0.426266 0.000000
-0.368026 0.345599 0.000000
-0.321809 0.389000 0.000000
0.214958 0.456810 0.000000
-0.321809 -0.389000 0.000000
0.156010 -0.480149 0.000000
0.270517 -0.426266 0.000000
-0.488997 -0.125553 0.000000
0.156010 0.480149 0.000000
-0.031700 -0.503862 0.000000
0.094601 0.495916 0.000000
-0.504858 0.000000 0.000000
0.442411 -0.243217 0.000000
-0.442411 -0.243217 0.000000
-0.488997 0.125553 0.000000
0.094601 -0.495916 0.000000
0.488997 0.125553 0.000000
-0.500877 0.063276 0.000000
0.214958 -0.456810 0.000000
0.031700 -0.503862 0.000000
0.469405 -0.185851 0.000000
0.500877 -0.063276 0.000000
-0.469405 -0.185851 0.000000
-0.214958 -0.456810 0.000000
-0.094601 -0.495916 0.000000
-0.408439 -0.296748 0.000000
-0.469405 0.185851 0.000000
0.500877 0.063276 0.000000
-0.156010 -0.480149 0.000000
0.488997 -0.125553 0.000000
-0.368026 -0.345599 0.000000
-0.442411 0.243217 0.000000
-0.408439 0.296748 0.000000
-0.270517 -0.426266 0.000000
-0.031815 0.505686 0.000000
0.444012 0.244098 0.000000
-0.271496 0.427809 0.000000
0.369358 0.346850 0.000000
-0.502691 -0.063505 0.000000
0.322974 -0.390408 0.000000
0.409918 0.297823 0.000000
-0.094943 0.497711 0.000000
0.506686 -0.000000 0.000000
-0.215736 0.458463 0.000000
-0.156575 0.481887 0.000000
0.031815 0.505686 0.000000
0.369358 -0.346850 0.000000
0.409918 -0.297823 0.000000
0.471105 0.186524 0.000000
0.322974 0.390408 0.000000
0.271496 0.427809 0.000000
-0.369358 0.346850 0.000000
-0.322974 0.390408 0.000000
0.215736 0.458463 0.000000
0.156575 -0.481887 0.000000
-0.322974 -0.390408 0.000000
0.271496 -0.427809 0.000000
-0.490768 -0.126008 0.000000
0.156575 0.481887 0.000000
-0.031815 -0.505686 0.000000
0.094943 0.497711 0.000000
-0.506686 0.000000 0.000000
0.444012 -0.244098 0.000000
-0.490768 0.126008 0.000000
-0.444012 -0.244098 0.000000
0.094943 -0.497711 0.000000
0.490768 0.126008 0.000000
-0.502691 0.063505 0.000000
0.215736 -0.458463 0.000000
0.031815 -0.505686 0.000000
0.471105 -0.186524 0.000000
-0.471105 -0.186524 0.000000
0.502691 -0.063505 0.000000
-0.215736 -0.458463 0.000000
-0.094943 -0.497711 0.000000
-0.409918 -0.297823 0.000000
-0.471105 0.186524 0.000000
0.502691 0.063505 0.000000
-0.156575 -0.481887 0.000000
0.490768 -0.126008 0.000000
-0.369358 -0.346850 0.000000
-0.444012 0.244098 0.000000
-0.409918 0.297823 0.000000
-0.271496 -0.427809 0.000000
-0.031952 0.507855 0.000000
0.445917 0.245145 0.000000
-0.272661 0.429644 0.000000
0.370943 0.348338 0.000000
-0.504847 -0.063777 0.000000
0.324359 -0.392083 0.000000
0.411676 0.299100 0.000000
-0.095351 0.499846 0.000000
0.508859 -0.000000 0.000000
-0.216662 0.460430 0.000000
-0.157246 0.483954 0.000000
0.031952 0.507855 0.000000
0.370943 -0.348338 0.000000
0.411676 -0.299100 0.000000
0.324359 0.392083 0.000000
0.473126 0.187324 0.000000
0.272661 0.429644 0.000000
-0.370943 0.348338 0.000000
-0.324359 0.392083 0.000000
0.216662 0.460430 0.000000
0.157246 -0.483954 0.000000
-0.324359 -0.392083 0.000000
0.272661 -0.429644 0.000000
0.157246 0.483954 0.000000
-0.492873 -0.126548 0.000000
-0.031952 -0.507855 0.000000
0.095351 0.499846 0.000000
0.445917 -0.245145 0.000000
-0.508859 0.000000 0.000000
-0.492873 0.126548 0.000000
-0.445917 -0.245145 0.000000
0.095351 -0.499846 0.000000
-0.504847 0.063777 0.000000
0.216662 -0.460430 0.000000
0.492873 0.126548 0.000000
0.031952 -0.507855 0.000000
0.473126 -0.187324 0.000000
-0.473126 -0.187324 0.000000
0.504847 -0.063777 0.000000
-0.216662 -0.460430 0.000000
-0.095351 -0.499846 0.000000
-0.473126 0.187324 0.000000
-0.411676 -0.299100 0.000000
-0.157246 -0.483954 0.000000
0.504847 0.063777 0.000000
0.492873 -0.126548 0.000000
-0.370943 -0.348338 0.000000
-0.445917 0.245145 0.000000
-0.411676 0.299100 0.000000
-0.272661 -0.429644 0.000000
0.318712 0.385257 0.100000
-0.318712 0.385257 0.100000
[...]
POINT_DATA 5000
SCALARS pressure float 1
LOOKUP_TABLE default
101813.358130
101813.358130
101813.358130
101813.358130
101813.358130
101813.358130
101813.358130
101813.358130
101813.358130
101813.358130
101813.358130
101813.358130
101813.358130
101813.358130
101813.358130
101813.358130
101325.000000
101325.000000
101325.000000
101325.000000
101325.000000
101325.000000
101325.000000
101325.000000
101325.000000
101325.000000
101325.000000
101325.000000
101325.000000
101325.000000
101325.000000
101325.000000
101325.000000
101325.000000
101325.000000
101325.000000
101325.000000
101325.000000
101325.000000
101325.000000
101325.000000
101325.000000
101325.000000
101325.000000
101325.000000
101325.000000
101325.000000
101325.000000
101325.000000
101325.000000
101323.541532
101324.660169
101323.956158
101324.313850
101324.976999
101324.130694
101324.494117
101323.587171
101325.000000
101323.801209
101323.675582
101323.541532
101324.801572
101324.130694
101324.313850
101324.494117
101324.313850
101324.130694
101323.956158
101323.801209
101324.130694
101323.675582
101324.909442
101323.675582
101323.956158
101323.587171
101323.541532
101325.000000
101324.660169
101324.660169
101323.587171
101324.909442
101324.909442
101324.976999
101323.801209
101323.541532
101324.976999
101324.801572
101324.801572
101323.801209
101323.587171
101324.494117
101324.976999
101324.909442
101323.675582
101324.313850
101324.801572
101324.660169
101324.494117
101323.956158
101321.860571
101324.268496
101322.753074
101323.523025
101324.950489
101323.128773
101323.911061
101321.958811
101325.000000
101322.419538
101322.149119
101321.860571
101324.572874
101323.523025
101323.911061
101323.128773
101323.523025
101323.128773
101322.753074
101322.419538
101323.128773
101322.149119
101324.805068
101322.149119
101322.753074
101321.958811
101321.860571
101325.000000
101324.268496
101324.268496
101321.958811
101324.805068
101324.805068
101324.950489
101322.419538
101321.860571
101324.572874
101324.950489
101324.572874
101322.419538
101321.958811
101323.911061
101324.950489
101322.149119
101324.805068
101323.523025
101324.572874
101324.268496
101323.911061
101322.753074
101319.880373
101323.807100
101321.335824
101322.591422
101324.919260
101321.948494
101323.224211
101320.040578
101325.000000
101320.791909
101320.350924
101319.880373
101324.303464
101322.591422
101323.224211
101321.948494
101321.335824
101322.591422
101321.948494
101320.791909
101321.948494
101320.350924
101324.682115
101320.350924
101321.335824
101319.880373
101320.040578
101325.000000
101323.807100
101323.807100
101324.682115
101320.040578
101324.682115
101324.919260
101320.791909
101319.880373
101324.303464
101324.919260
101324.303464
101320.791909
101320.040578
101323.224211
101324.919260
101320.350924
101324.682115
101324.303464
101322.591422
101323.807100
101323.224211
101321.335824
101317.546301
101323.263249
101319.665303
101321.493336
101324.882451
101320.557293
101322.414617
101317.779546
101325.000000
101318.873412
101318.231380
101317.546301
101323.985909
101321.493336
101322.414617
101320.557293
101319.665303
101321.493336
101320.557293
101318.873412
101320.557293
101318.231380
101319.665303
101324.537189
101318.231380
101317.546301
101317.779546
101325.000000
101323.263249
101323.263249
101324.537189
101317.779546
101324.537189
101324.882451
101318.873412
101317.546301
101323.985909
101324.882451
101323.985909
101318.873412
101317.779546
101322.414617
101323.985909
101324.882451
101318.231380
101324.537189
101321.493336
101323.263249
101322.414617
101319.665303
101314.797690
101322.622808
101317.698090
101320.200225
101324.839103
101318.919009
101321.461237
101315.116946
101325.000000
101316.614184
101315.735397
101314.797690
101320.200225
101321.461237
101323.611954
101318.919009
101317.698090
101320.200225
101318.919009
101316.614184
101315.735397
101318.919009
101317.698090
101324.366524
101315.735397
101314.797690
101315.116946
101325.000000
101322.622808
101324.366524
101322.622808
101315.116946
101324.366524
101324.839103
101316.614184
101314.797690
101323.611954
101323.611954
101324.839103
101316.614184
101315.116946
101321.461237
101323.611954
101324.839103
101315.735397
101324.366524
101320.200225
101322.622808
101321.461237
101317.698090
101311.567543
101321.870167
101315.386237
101318.680572
101324.788162
101316.993710
101320.340831
101311.987878
101325.000000
101313.959156
101312.802137
101311.567543
101318.680572
101320.340831
101316.993710
101323.172486
101315.386237
101318.680572
101316.993710
101313.959156
101312.802137
101316.993710
101315.386237
101312.802137
101324.165959
101311.567543
101311.987878
101321.870167
101325.000000
101324.165959
101321.870167
101311.987878
101324.788162
101313.959156
101324.165959
101311.567543
101323.172486
101323.172486
101324.788162
101313.959156
101311.987878
101323.172486
101320.340831
101312.802137
101324.788162
101324.165959
101318.680572
101321.870167
101320.340831
101315.386237
101813.358130
101813.358130
101813.358130
101813.358130
101813.358130
101813.358130
101813.358130
101813.358130
101813.358130
101813.358130
101813.358130
101813.358130
101813.358130
101813.358130
101813.358130
101813.358130
101325.000000
101325.000000
101325.000000
101325.000000
101325.000000
101325.000000
101325.000000
101325.000000
101325.000000
101325.000000
101325.000000
101325.000000
101325.000000
101325.000000
101325.000000
101325.000000
101325.000000
101325.000000
101325.000000
101325.000000
101325.000000
101325.000000
101325.000000
101325.000000
101325.000000
101325.000000
101325.000000
101325.000000
101325.000000
101325.000000
101325.000000
101325.000000
101325.000000
101325.000000
101323.541532
101324.660169
101323.587171
101324.494117
101324.494117
101323.675582
101324.313850
101323.675582
101323.956158
101323.801209
101323.956158
101324.130694
101324.660169
101323.541532
101324.976999
101323.675582
101324.313850
101324.801572
101324.909442
101323.801209
101324.130694
101323.587171
101324.130694
101323.956158
101324.909442
101324.660169
101325.000000
101323.801209
101324.909442
101323.587171
101323.801209
101324.801572
101324.801572
101325.000000
101324.976999
101324.313850
101323.541532
101323.541532
101324.130694
101324.976999
101324.660169
101324.801572
101324.494117
101324.976999
101323.675582
101323.587171
101323.956158
101324.909442
101324.313850
101324.494117
101307.781827
101320.988075
101316.899545
101312.676757
101324.728459
101314.737269
101319.027721
101308.320626
101325.000000
101310.847477
101309.364370
101307.781827
101316.899545
101319.027721
101314.737269
101322.657432
101312.676756
101310.847477
101316.899545
101314.737269
101309.364370
101314.737269
101312.676756
101309.364370
101323.930898
101307.781827
101308.320626
101320.988075
101325.000000
101323.930898
101320.988075
101308.320626
101310.847477
101324.728459
101323.930898
101307.781827
101322.657432
101322.657432
101324.728459
101310.847477
101322.657432
101308.320626
101319.027721
101309.364370
101324.728459
101323.930898
101316.899545
101320.988075
101319.027721
101312.676756
101321.860571
101324.268496
101321.958811
101323.911061
101323.911061
101323.523025
101322.149119
101322.149119
101322.753074
101322.419538
101322.753074
101323.128773
101324.268496
101321.860571
101324.950489
101322.149119
101323.523025
101324.572874
101324.805068
101322.419538
101323.128773
101321.958811
101323.128773
101322.753074
101324.805068
101324.268496
101322.419538
101325.000000
101324.805068
101321.958811
101322.419538
101324.572874
101324.572874
101324.950489
101325.000000
101323.523025
101321.860571
101321.860571
101323.128773
101324.950489
101324.268496
101324.572874
101323.911061
101324.950489
101322.149119
101321.958811
101322.753074
101324.805068
101323.523025
101323.911061
101319.880373
101323.807100
101320.040578
101323.224211
101323.224211
101322.591422
101320.350924
101320.350924
101321.335824
101320.791909
101321.335824
101321.948494
101323.807100
101324.919260
101319.880373
101320.350924
101322.591422
101324.682115
101324.303464
101320.791909
101321.948494
101320.040578
101321.948494
101321.335824
101324.682115
101323.807100
101320.791909
101325.000000
101324.682115
101320.040578
101320.791909
101324.303464
101324.303464
101324.919260
101325.000000
101322.591422
101319.880373
101319.880373
101321.948494
101324.919260
101323.807100
101324.303464
101323.224211
101324.919260
101320.350924
101320.040578
101321.335824
101324.682115
101322.591422
101323.224211
101303.355404
101319.956695
101314.817092
101309.508715
101324.658652
101312.098941
101317.492376
101304.032718
101325.000000
101307.209167
101305.344786
101303.355404
101317.492376
101314.817092
101312.098941
101322.055207
101309.508715
101307.209167
101314.817092
101312.098941
101305.344786
101309.508715
101312.098941
101305.344786
101323.656055
101303.355404
101319.956695
101304.032717
101325.000000
101323.656055
101319.956695
101304.032717
101307.209167
101324.658652
101323.656055
101303.355404
101322.055207
101322.055207
101324.658652
101307.209167
101322.055207
101304.032717
101317.492376
101305.344786
101324.658652
101319.956695
101323.656055
101314.817092
101309.508715
101317.492376
101317.546301
101323.263249
101317.779546
101322.414617
101322.414617
101321.493336
101318.231380
101318.231380
101319.665303
101319.665303
101318.873412
101320.557293
101323.263249
101324.882451
101317.546301
101318.231380
101321.493336
101324.537189
101323.985909
101318.873412
101320.557293
101317.779546
101320.557293
101319.665303
101324.537189
101323.263249
101318.873412
101325.000000
101324.537189
101317.779546
101318.873412
101323.985909
101323.985909
101324.882451
101325.000000
101321.493336
101317.546301
101317.546301
101320.557293
101324.882451
101323.263249
101323.985909
101322.414617
101324.882451
101318.231380
101317.779546
101319.665303
101324.537189
101321.493336
101322.414617
101314.797690
101322.622808
101321.461237
101315.116946
101321.461237
101320.200225
101315.735397
101315.735397
101317.698090
101317.698090
101316.614184
101318.919009
101322.622808
101324.839103
101315.735397
101314.797690
101320.200225
101324.366524
101316.614184
101323.611954
101318.919009
101315.116946
101317.698090
101318.919009
101324.366524
101322.622808
101316.614184
101325.000000
101315.116946
101324.366524
101316.614184
101323.611954
101323.611954
101324.839103
101325.000000
101320.200225
101314.797690
101314.797690
101318.919009
101324.839103
101322.622808
101323.611954
101321.461237
101315.735397
101315.116946
101324.839103
101317.698090
101324.366524
101320.200225
101321.461237
101298.189291
101318.752964
101312.386645
101305.811269
101324.577179
101309.019728
101315.700463
101299.028265
101325.000000
101302.962866
101300.653496
101298.189291
101315.700463
101312.386645
101309.019728
101305.811269
101321.352347
101302.962866
101312.386645
101309.019728
101300.653496
101305.811269
101309.019728
101300.653496
101323.335284
101298.189291
101318.752964
101299.028265
101325.000000
101323.335284
101299.028265
101318.752964
101302.962866
101324.577179
101323.335284
101298.189291
101321.352347
101321.352347
101321.352347
101302.962866
101324.577179
101299.028265
101300.653496
101315.700463
101324.577179
101318.752964
101323.335284
101312.386645
101305.811269
101315.700463
101311.567543
101321.870167
101320.340831
101311.987878
101320.340831
101318.680572
101312.802137
101312.802137
101315.386237
101315.386237
101313.959156
101316.993710
101321.870167
101324.788162
101312.802137
101311.567543
101318.680572
101324.165959
101313.959156
101323.172486
101316.993710
101315.386237
101311.987878
101316.993710
101324.165959
101321.870167
101313.959156
101325.000000
101311.987878
101324.165959
101313.959156
101323.172486
101323.172486
101324.788162
101325.000000
101318.680572
101311.567543
101311.567543
101316.993710
101323.172486
101321.870167
101324.788162
101320.340831
101312.802137
101311.987878
101315.386237
101324.788162
101324.165959
101318.680572
101320.340831
101307.781827
101320.988075
101319.027721
101319.027721
101316.899545
101308.320626
101309.364370
101309.364370
101312.676756
101312.676756
101310.847477
101314.737269
101320.988075
101324.728459
101309.364370
101307.781827
101316.899545
101323.930898
101310.847477
101322.657432
101314.737269
101312.676756
101308.320626
101323.930898
101320.988075
101314.737269
101310.847477
101308.320626
101325.000000
101310.847477
101323.930898
101322.657432
101322.657432
101324.728459
101325.000000
101307.781827
101316.899545
101307.781827
101314.737269
101322.657432
101320.988075
101324.728459
101319.027721
101309.364370
101308.320626
101312.676756
101324.728459
101323.930898
101316.899545
101319.027721
101292.196683
101317.356655
101309.567365
101301.522290
101324.482672
101305.447890
101313.621873
101293.223180
101325.000000
101298.037226
101295.211676
101292.196683
101313.621873
101309.567365
101305.447890
101301.522290
101298.037226
101320.537040
101295.211676
101309.567365
101305.447890
101301.522290
101295.211676
101305.447890
101322.963194
101317.356654
101292.196683
101293.223180
101325.000000
101322.963194
101293.223180
101317.356654
101298.037226
101324.482672
101322.963194
101292.196683
101320.537040
101320.537040
101320.537040
101298.037226
101324.482672
101293.223180
101295.211676
101313.621873
101317.356654
101324.482672
101322.963194
101309.567364
101301.522290
101313.621873
101303.355404
101319.956695
101317.492376
101317.492376
101314.817092
101305.344786
101304.032718
101305.344786
101309.508715
101309.508715
101312.098941
101307.209167
101319.956695
101305.344786
101324.658652
101303.355404
101314.817092
101323.656055
101307.209167
101322.055207
101312.098941
101309.508715
101304.032717
101319.956695
101323.656055
101312.098941
101307.209167
101304.032717
101307.209167
101325.000000
101323.656055
101322.055207
101322.055207
101324.658652
101325.000000
101303.355404
101303.355404
101314.817092
101322.055207
101312.098941
101319.956695
101324.658652
101317.492376
101305.344786
101304.032717
101309.508715
101323.656055
101324.658652
101314.817092
101317.492376
101285.279092
101315.744820
101306.312918
101296.571292
101324.373578
101301.324725
101311.222444
101286.522058
101325.000000
101288.929890
101292.351294
101285.279092
101311.222444
101306.312918
101301.324725
101296.571292
101292.351294
101319.595887
101288.929890
101296.571292
101306.312918
101301.324725
101288.929890
101322.533671
101315.744820
101301.324725
101285.279092
101286.522058
101322.533671
101325.000000
101286.522058
101315.744820
101292.351294
101324.373578
101285.279092
101322.533671
101319.595887
101319.595887
101319.595887
101292.351294
101286.522058
101324.373578
101288.929890
101311.222444
101315.744820
101324.373578
101322.533671
101306.312918
101296.571292
101311.222444
101298.189291
101318.752964
101315.700463
101315.700463
101312.386645
101300.653496
101299.028265
101300.653496
101305.811269
101305.811269
101309.019728
101302.962866
101318.752964
101300.653496
101324.577179
101312.386645
101323.335284
101298.189291
101302.962866
101321.352347
101309.019728
101305.811269
101318.752964
101299.028265
101323.335284
101302.962866
101309.019728
101302.962866
101299.028265
101325.000000
101323.335284
101321.352347
101321.352347
101324.577179
101325.000000
101298.189291
101298.189291
101312.386645
101321.352347
101309.019728
101318.752964
101324.577179
101300.653496
101315.700463
101299.028265
101305.811269
101323.335284
101324.577179
101312.386645
101315.700463
101292.196683
101317.356655
101313.621873
101295.211676
101309.567365
101313.621873
101293.223180
101295.211676
101301.522290
101301.522290
101305.447890
101317.356654
101298.037226
101295.211676
101324.482672
101309.567365
101322.963194
101292.196683
101298.037226
101305.447890
101301.522290
101320.537040
101317.356654
101293.223180
101322.963194
101298.037226
101298.037226
101305.447890
101293.223180
101325.000000
101322.963194
101320.537040
101320.537040
101324.482672
101292.196683
101292.196683
101325.000000
101320.537040
101309.567364
101305.447890
101317.356654
101324.482672
101295.211676
101301.522290
101293.223180
101313.621873
101322.963194
101324.482672
101309.567364
101313.621873
101277.331572
101313.893005
101302.573930
101290.883160
101296.587680
101324.248240
101308.465774
101278.823235
101325.000000
101281.712835
101285.818808
101308.465774
101277.331572
101302.573930
101296.587680
101285.818808
101290.883160
101318.514611
101281.712835
101290.883160
101281.712835
101302.573930
101313.893005
101296.587680
101322.040197
101277.331572
101296.587680
101278.823235
101322.040197
101325.000000
101278.823235
101313.893005
101285.818808
101324.248240
101277.331571
101322.040197
101318.514611
101318.514611
101318.514611
101285.818808
101278.823235
101281.712835
101324.248240
101313.893005
101308.465774
101324.248240
101322.040197
101290.883160
101302.573930
101308.465774
101285.279092
101315.744820
101311.222444
101288.929890
101306.312918
101311.222444
101286.522058
101288.929890
101296.571292
101296.571292
101301.324725
101315.744820
101288.929890
101292.351294
101324.373578
101322.533671
101306.312918
101292.351294
101285.279092
101296.571292
101301.324725
101315.744820
101319.595887
101292.351294
101322.533671
101292.351294
101286.522058
101301.324725
101286.522058
101319.595887
101319.595887
101325.000000
101322.533671
101324.373578
101285.279092
101285.279092
101319.595887
101325.000000
101306.312918
101315.744820
101301.324725
101324.373578
101288.929890
101296.571292
101286.522058
101311.222444
101322.533671
101324.373578
101306.312918
101311.222444
101268.228288
101311.771892
101298.291203
101284.367836
101291.161753
101324.104676
101305.308218
101270.004816
101325.000000
101305.308218
101298.291203
101273.446246
101278.336340
101268.228288
101278.336340
101291.161753
101284.367836
101273.446246
101284.367836
101317.276090
101311.771892
101273.446246
101321.474961
101298.291203
101291.161753
101268.228288
101291.161753
101321.474961
101270.004816
101325.000000
101270.004816
101311.771892
101278.336340
101324.104676
101317.276090
101268.228288
101317.276090
101321.474961
101278.336340
101317.276090
101270.004816
101273.446246
101324.104676
101311.771892
101305.308218
101324.104676
101284.367836
101321.474961
101298.291203
101305.308218
101277.331572
101313.893005
101308.465774
101281.712835
101302.573930
101308.465774
101278.823235
101290.883160
101281.712835
101296.587680
101290.883160
101313.893005
101281.712835
101322.040197
101324.248240
101302.573930
101285.818808
101285.818808
101277.331572
101290.883160
101296.587680
101285.818808
101313.893005
101285.818808
101322.040197
101318.514611
101278.823235
101278.823235
101296.587680
101318.514611
101318.514611
101322.040197
101325.000000
101324.248240
101318.514611
101277.331571
101277.331571
101325.000000
101313.893005
101302.573930
101296.587680
101281.712835
101324.248240
101290.883160
101278.823235
101308.465774
101322.040197
101324.248240
101302.573930
101308.465774
101257.919415
101309.369871
101293.441295
101276.989657
101285.017245
101323.942099
101301.732492
101260.018533
101325.000000
101301.732492
101293.441295
101269.862934
101285.017245
101276.989657
101264.084874
101257.919415
101269.862934
101264.084874
101276.989657
101309.369871
101264.084874
101315.873546
101320.834868
101257.919415
101293.441295
101285.017245
101285.017245
101320.834868
101260.018533
101325.000000
101260.018533
101309.369871
101269.862934
101315.873546
101323.942099
101257.919415
101269.862934
101315.873546
101320.834868
101315.873546
101264.084873
101260.018533
101309.369871
101323.942099
101301.732492
101276.989657
101323.942099
101320.834868
101293.441295
101301.732492
101268.228288
101305.308218
101311.771892
101273.446246
101298.291203
101305.308218
101270.004816
101284.367836
101291.161753
101273.446246
101311.771892
101284.367836
101273.446246
101321.474961
101298.291203
101324.104676
101278.336340
101278.336340
101268.228288
101278.336340
101284.367836
101291.161753
101311.771892
101278.336340