# vtk DataFile Version 3.0
Time Step 16, Physical Time = 0.000160s, Residual = 8.52e-03
ASCII
DATASET UNSTRUCTURED_GRID
POINTS 5000 float
0.318712 0.385257 0.000000
-0.318712 0.385257 0.000000
-0.318712 -0.385257 0.000000
0.318712 -0.385257 0.000000
0.093691 0.491144 0.000000
-0.093691 0.491144 0.000000
-0.093691 -0.491144 0.000000
0.093691 -0.491144 0.000000
0.404508 0.293893 0.000000
-0.404508 0.293893 0.000000
-0.404508 -0.293893 0.000000
0.404508 -0.293893 0.000000
0.438153 0.240877 0.000000
-0.438153 0.240877 0.000000
-0.438153 -0.240877 0.000000
0.438153 -0.240877 0.000000
0.500000 0.000000 0.000000
-0.500000 -0.000000 0.000000
0.364484 0.342274 0.000000
-0.364484 0.342274 0.000000
-0.364484 -0.342274 0.000000
0.364484 -0.342274 0.000000
0.496057 0.062667 0.000000
-0.496057 0.062667 0.000000
-0.496057 -0.062667 0.000000
0.496057 -0.062667 0.000000
0.212890 0.452414 0.000000
-0.212890 0.452414 0.000000
-0.212890 -0.452414 0.000000
0.212890 -0.452414 0.000000
0.154508 0.475528 0.000000
-0.154508 0.475528 0.000000
-0.154508 -0.475528 0.000000
0.154508 -0.475528 0.000000
0.267913 0.422164 0.000000
-0.267913 0.422164 0.000000
-0.267913 -0.422164 0.000000
0.267913 -0.422164 0.000000
0.031395 0.499013 0.000000
-0.031395 0.499013 0.000000
-0.031395 -0.499013 0.000000
0.031395 -0.499013 0.000000
0.464888 0.184062 0.000000
-0.464888 0.184062 0.000000
-0.464888 -0.184062 0.000000
0.464888 -0.184062 0.000000
0.484292 0.124345 0.000000
-0.484292 0.124345 0.000000
-0.484292 -0.124345 0.000000
0.484292 -0.124345 0.000000
-0.031454 0.499951 0.000000
0.438977 0.241329 0.000000
-0.268417 0.422957 0.000000
0.365169 0.342917 0.000000
-0.496990 -0.062784 0.000000
0.319311 -0.385981 0.000000
0.405269 0.294445 0.000000
-0.093867 0.492067 0.000000
0.500940 -0.000000 0.000000
-0.213290 0.453264 0.000000
-0.154799 0.476422 0.000000
0.031454 0.499951 0.000000
0.465762 0.184408 0.000000
0.319311 0.385981 0.000000
0.365169 -0.342917 0.000000
0.405269 -0.294445 0.000000
-0.365169 0.342917 0.000000
-0.319311 0.385981 0.000000
0.268417 0.422957 0.000000
0.213290 0.453264 0.000000
-0.319311 -0.385981 0.000000
0.154799 -0.476422 0.000000
-0.485202 -0.124579 0.000000
0.154799 0.476422 0.000000
0.268417 -0.422957 0.000000
0.093867 0.492067 0.000000
-0.031454 -0.499951 0.000000
-0.500940 0.000000 0.000000
0.438977 -0.241329 0.000000
-0.438977 -0.241329 0.000000
0.093867 -0.492067 0.000000
-0.485202 0.124579 0.000000
0.485202 0.124579 0.000000
-0.496990 0.062784 0.000000
0.213290 -0.453264 0.000000
0.031454 -0.499951 0.000000
0.496990 -0.062784 0.000000
0.465762 -0.184408 0.000000
-0.465762 -0.184408 0.000000
-0.213290 -0.453264 0.000000
-0.093867 -0.492067 0.000000
-0.405269 -0.294445 0.000000
0.496990 0.062784 0.000000
0.485202 -0.124579 0.000000
-0.154799 -0.476422 0.000000
-0.365169 -0.342917 0.000000
-0.465762 0.184408 0.000000
-0.438977 0.241329 0.000000
-0.405269 0.294445 0.000000
-0.268417 -0.422957 0.000000
-0.031523 0.501039 0.000000
0.439932 0.241854 0.000000
-0.269001 0.423877 0.000000
0.365964 0.343663 0.000000
-0.498071 -0.062921 0.000000
0.320005 -0.386820 0.000000
0.406150 0.295085 0.000000
-0.094071 0.493137 0.000000
0.502029 -0.000000 0.000000
-0.213754 0.454250 0.000000
-0.155136 0.477458 0.000000
0.031523 0.501039 0.000000
0.466775 0.184809 0.000000
0.365964 -0.343663 0.000000
0.406150 -0.295085 0.000000
0.320005 0.386820 0.000000
-0.365964 0.343663 0.000000
-0.320005 0.386820 0.000000
0.269001 0.423877 0.000000
0.213754 0.454250 0.000000
-0.320005 -0.386820 0.000000
0.155136 -0.477458 0.000000
-0.486257 -0.124850 0.000000
0.155136 0.477458 0.000000
0.269001 -0.423877 0.000000
0.094071 0.493137 0.000000
-0.031523 -0.501039 0.000000
-0.502029 0.000000 0.000000
0.439932 -0.241854 0.000000
-0.439932 -0.241854 0.000000
0.094071 -0.493137 0.000000
-0.486257 0.124850 0.000000
0.486257 0.124850 0.000000
-0.498071 0.062921 0.000000
0.213754 -0.454250 0.000000
0.031523 -0.501039 0.000000
0.466775 -0.184809 0.000000
0.498071 -0.062921 0.000000
-0.466775 -0.184809 0.000000
-0.213754 -0.454250 0.000000
-0.094071 -0.493137 0.000000
-0.406150 -0.295085 0.000000
0.498071 0.062921 0.000000
-0.155136 -0.477458 0.000000
0.486257 -0.124850 0.000000
-0.365964 -0.343663 0.000000
-0.466775 0.184809 0.000000
-0.439932 0.241854 0.000000
-0.406150 0.295085 0.000000
-0.269001 -0.423877 0.000000
-0.031604 0.502329 0.000000
0.441064 0.242477 0.000000
-0.269693 0.424969 0.000000
0.366906 0.344547 0.000000
-0.499353 -0.063083 0.000000
0.320829 -0.387816 0.000000
0.407196 0.295845 0.000000
-0.094313 0.494407 0.000000
0.503322 -0.000000 0.000000
-0.214304 0.455419 0.000000
-0.155535 0.478688 0.000000
0.031604 0.502329 0.000000
0.467977 0.185285 0.000000
0.366906 -0.344547 0.000000
0.407196 -0.295845 0.000000
0.320829 0.387816 0.000000
0.269693 0.424969 0.000000
-0.366906 0.344547 0.000000
-0.320829 0.387816 0.000000
0.214304 0.455419 0.000000
-0.320829 -0.387816 0.000000
0.155535 -0.478688 0.000000
-0.487509 -0.125171 0.000000
0.155535 0.478688 0.000000
0.269693 -0.424969 0.000000
-0.031604 -0.502329 0.000000
0.094313 0.494407 0.000000
-0.503322 0.000000 0.000000
0.441064 -0.242477 0.000000
-0.441064 -0.242477 0.000000
-0.487509 0.125171 0.000000
0.094313 -0.494407 0.000000
0.487509 0.125171 0.000000
-0.499353 0.063083 0.000000
0.214304 -0.455419 0.000000
0.031604 -0.502329 0.000000
0.467977 -0.185285 0.000000
0.499353 -0.063083 0.000000
-0.467977 -0.185285 0.000000
-0.214304 -0.455419 0.000000
-0.094313 -0.494407 0.000000
-0.407196 -0.295845 0.000000
0.499353 0.063083 0.000000
-0.155535 -0.478688 0.000000
0.487509 -0.125171 0.000000
-0.467977 0.185285 0.000000
-0.366906 -0.344547 0.000000
-0.441064 0.242477 0.000000
-0.407196 0.295845 0.000000
-0.269693 -0.424969 0.000000
-0.031700 0.503862 0.000000
0.442411 0.243217 0.000000
-0.270517 0.426266 0.000000
0.368026 0.345599 0.000000
-0.500877 -0.063276 0.000000
0.321809 -0.389000 0.000000
0.408439 0.296748 0.000000
-0.094601 0.495916 0.000000
0.504858 -0.000000 0.000000
-0.214958 0.456810 0.000000
-0.156010 0.480149 0.000000
0.031700 0.503862 0.000000
0.469405 0.185851 0.000000
0.368026 -0.345599 0.000000
0.408439 -0.296748 0.000000
0.321809 0.389000 0.000000
0.270517 0.426266 0.000000
-0.368026 0.345599 0.000000
-0.321809 0.389000 0.000000
0.214958 0.456810 0.000000
-0.321809 -0.389000 0.000000
0.156010 -0.480149 0.000000
0.270517 -0.426266 0.000000
-0.488997 -0.125553 0.000000
0.156010 0.480149 0.000000
-0.031700 -0.503862 0.000000
0.094601 0.495916 0.000000
-0.504858 0.000000 0.000000
0.442411 -0.243217 0.000000
-0.442411 -0.243217 0.000000
-0.488997 0.125553 0.000000
0.094601 -0.495916 0.000000
0.488997 0.125553 0.000000
-0.500877 0.063276 0.000000
0.214958 -0.456810 0.000000
0.031700 -0.503862 0.000000
0.469405 -0.185851 0.000000
0.500877 -0.063276 0.000000
-0.469405 -0.185851 0.000000
-0.214958 -0.456810 0.000000
-0.094601 -0.495916 0.000000
-0.408439 -0.296748 0.000000
-0.469405 0.185851 0.000000
0.500877 0.063276 0.000000
-0.156010 -0.480149 0.000000
0.488997 -0.125553 0.000000
-0.368026 -0.345599 0.000000
-0.442411 0.243217 0.000000
-0.408439 0.296748 0.000000
-0.270517 -0.426266 0.000000
-0.031815 0.505686 0.000000
0.444012 0.244098 0.000000
-0.271496 0.427809 0.000000
0.369358 0.346850 0.000000
-0.502691 -0.063505 0.000000
0.322974 -0.390408 0.000000
0.409918 0.297823 0.000000
-0.094943 0.497711 0.000000
0.506686 -0.000000 0.000000
-0.215736 0.458463 0.000000
-0.156575 0.481887 0.000000
0.031815 0.505686 0.000000
0.369358 -0.346850 0.000000
0.409918 -0.297823 0.000000
0.471105 0.186524 0.000000
0.322974 0.390408 0.000000
0.271496 0.427809 0.000000
-0.369358 0.346850 0.000000
-0.322974 0.390408 0.000000
0.215736 0.458463 0.000000
0.156575 -0.481887 0.000000
-0.322974 -0.390408 0.000000
0.271496 -0.427809 0.000000
-0.490768 -0.126008 0.000000
0.156575 0.481887 0.000000
-0.031815 -0.505686 0.000000
0.094943 0.497711 0.000000
-0.506686 0.000000 0.000000
0.444012 -0.244098 0.000000
-0.490768 0.126008 0.000000
-0.444012 -0.244098 0.000000
0.094943 -0.497711 0.000000
0.490768 0.126008 0.000000
-0.502691 0.063505 0.000000
0.215736 -0.458463 0.000000
0.031815 -0.505686 0.000000
0.471105 -0.186524 0.000000
-0.471105 -0.186524 0.000000
0.502691 -0.063505 0.000000
-0.215736 -0.458463 0.000000
-0.094943 -0.497711 0.000000
-0.409918 -0.297823 0.000000
-0.471105 0.186524 0.000000
0.502691 0.063505 0.000000
-0.156575 -0.481887 0.000000
0.490768 -0.126008 0.000000
-0.369358 -0.346850 0.000000
-0.444012 0.244098 0.000000
-0.409918 0.297823 0.000000
-0.271496 -0.427809 0.000000
-0.031952 0.507855 0.000000
0.445917 0.245145 0.000000
-0.272661 0.429644 0.000000
0.370943 0.348338 0.000000
-0.504847 -0.063777 0.000000
0.324359 -0.392083 0.000000
0.411676 0.299100 0.000000
-0.095351 0.499846 0.000000
0.508859 -0.000000 0.000000
-0.216662 0.460430 0.000000
-0.157246 0.483954 0.000000
0.031952 0.507855 0.000000
0.370943 -0.348338 0.000000
0.411676 -0.299100 0.000000
0.324359 0.392083 0.000000
0.473126 0.187324 0.000000
0.272661 0.429644 0.000000
-0.370943 0.348338 0.000000
-0.324359 0.392083 0.000000
0.216662 0.460430 0.000000
0.157246 -0.483954 0.000000
-0.324359 -0.392083 0.000000
0.272661 -0.429644 0.000000
0.157246 0.483954 0.000000
-0.492873 -0.126548 0.000000
-0.031952 -0.507855 0.000000
0.095351 0.499846 0.000000
0.445917 -0.245145 0.000000
-0.508859 0.000000 0.000000
-0.492873 0.126548 0.000000
-0.445917 -0.245145 0.000000
0.095351 -0.499846 0.000000
-0.504847 0.063777 0.000000
0.216662 -0.460430 0.000000
0.492873 0.126548 0.000000
0.031952 -0.507855 0.000000
0.473126 -0.187324 0.000000
-0.473126 -0.187324 0.000000
0.504847 -0.063777 0.000000
-0.216662 -0.460430 0.000000
-0.095351 -0.499846 0.000000
-0.473126 0.187324 0.000000
-0.411676 -0.299100 0.000000
-0.157246 -0.483954 0.000000
0.504847 0.063777 0.000000
0.492873 -0.126548 0.000000
-0.370943 -0.348338 0.000000
-0.445917 0.245145 0.000000
-0.411676 0.299100 0.000000
-0.272661 -0.429644 0.000000
0.318712 0.385257 0.100000
-0.318712 0.385257 0.100000
[...]
POINT_DATA 5000
SCALARS pressure float 1
LOOKUP_TABLE default
101461.925481
101461.925481
101461.925481
101461.925481
101461.925481
101461.925481
101461.925481
101461.925481
101461.925481
101461.925481
101461.925481
101461.925481
101461.925481
101461.925481
101461.925481
101461.925481
101325.000000
101325.000000
101325.000000
101325.000000
101325.000000
101325.000000
101325.000000
101325.000000
101325.000000
101325.000000
101325.000000
101325.000000
101325.000000
101325.000000
101325.000000
101325.000000
101325.000000
101325.000000
101325.000000
101325.000000
101325.000000
101325.000000
101325.000000
101325.000000
101325.000000
101325.000000
101325.000000
101325.000000
101325.000000
101325.000000
101325.000000
101325.000000
101325.000000
101325.000000
101324.591076
101324.904719
101324.707328
101324.807618
101324.993551
101324.756265
101324.858161
101324.603872
101325.000000
101324.663884
101324.628661
101324.591076
101324.944365
101324.756265
101324.807618
101324.858161
101324.807618
101324.756265
101324.707328
101324.663884
101324.756265
101324.628661
101324.974609
101324.628661
101324.707328
101324.603872
101324.591076
101325.000000
101324.904719
101324.904719
101324.603872
101324.974609
101324.974609
101324.993551
101324.663884
101324.591076
101324.993551
101324.944365
101324.944365
101324.663884
101324.603872
101324.858161
101324.993551
101324.974609
101324.628661
101324.807618
101324.944365
101324.904719
101324.858161
101324.707328
101324.119769
101324.794902
101324.370009
101324.585887
101324.986118
101324.475347
101324.694684
101324.147314
101325.000000
101324.276492
101324.200672
101324.119769
101324.880243
101324.585887
101324.694684
101324.475347
101324.585887
101324.475347
101324.370009
101324.276492
101324.475347
101324.200672
101324.945345
101324.200672
101324.370009
101324.147314
101324.119769
101325.000000
101324.794902
101324.794902
101324.147314
101324.945345
101324.945345
101324.986118
101324.276492
101324.119769
101324.880243
101324.986118
101324.880243
101324.276492
101324.147314
101324.694684
101324.986118
101324.200672
101324.945345
101324.585887
101324.880243
101324.794902
101324.694684
101324.370009
101323.564563
101324.665536
101323.972641
101324.324685
101324.977362
101324.144421
101324.502106
101323.609481
101325.000000
101323.820139
101323.696496
101323.564563
101324.804706
101324.324685
101324.502106
101324.144421
101323.972641
101324.324685
101324.144421
101323.820139
101324.144421
101323.696496
101324.910872
101323.696496
101323.972641
101323.564563
101323.609481
101325.000000
101324.665536
101324.665536
101324.910872
101323.609481
101324.910872
101324.977362
101323.820139
101323.564563
101324.804706
101324.977362
101324.804706
101323.820139
101323.609481
101324.502106
101324.977362
101323.696496
101324.910872
101324.804706
101324.324685
101324.665536
101324.502106
101323.972641
101322.910138
101324.513051
101323.504262
101324.016804
101324.967042
101323.754357
101324.275112
101322.975535
101325.000000
101323.282232
101323.102219
101322.910138
101324.715670
101324.016804
101324.275112
101323.754357
101323.504262
101324.016804
101323.754357
101323.282232
101323.754357
101323.102219
101323.504262
101324.870237
101323.102219
101322.910138
101322.975535
101325.000000
101324.513051
101324.513051
101324.870237
101322.975535
101324.870237
101324.967042
101323.282232
101322.910138
101324.715670
101324.967042
101324.715670
101323.282232
101322.975535
101324.275112
101324.715670
101324.967042
101323.102219
101324.870237
101324.016804
101324.513051
101324.275112
101323.504262
101322.139484
101324.333485
101322.952696
101323.654243
101324.954888
101323.295016
101324.007804
101322.228997
101325.000000
101322.648791
101322.402398
101322.139484
101323.654243
101324.007804
101324.610821
101323.295016
101322.952696
101323.654243
101323.295016
101322.648791
101322.402398
101323.295016
101322.952696
101324.822386
101322.402398
101322.139484
101322.228997
101325.000000
101324.333485
101324.822386
101324.333485
101322.228997
101324.822386
101324.954888
101322.648791
101322.139484
101324.610821
101324.610821
101324.954888
101322.648791
101322.228997
101324.007804
101324.610821
101324.954888
101322.402398
101324.822386
101323.654243
101324.333485
101324.007804
101322.952696
101321.233818
101324.122460
101322.304500
101323.228164
101324.940605
101322.755202
101323.693666
101321.351671
101325.000000
101321.904377
101321.579972
101321.233818
101323.228164
101323.693666
101322.755202
101324.487603
101322.304500
101323.228164
101322.755202
101321.904377
101321.579972
101322.755202
101322.304500
101321.579972
101324.766152
101321.233818
101321.351671
101324.122460
101325.000000
101324.766152
101324.122460
101321.351671
101324.940605
101321.904377
101324.766152
101321.233818
101324.487603
101324.487603
101324.940605
101321.904377
101321.351671
101324.487603
101323.693666
101321.579972
101324.940605
101324.766152
101323.228164
101324.122460
101323.693666
101322.304500
101461.925481
101461.925481
101461.925481
101461.925481
101461.925481
101461.925481
101461.925481
101461.925481
101461.925481
101461.925481
101461.925481
101461.925481
101461.925481
101461.925481
101461.925481
101461.925481
101325.000000
101325.000000
101325.000000
101325.000000
101325.000000
101325.000000
101325.000000
101325.000000
101325.000000
101325.000000
101325.000000
101325.000000
101325.000000
101325.000000
101325.000000
101325.000000
101325.000000
101325.000000
101325.000000
101325.000000
101325.000000
101325.000000
101325.000000
101325.000000
101325.000000
101325.000000
101325.000000
101325.000000
101325.000000
101325.000000
101325.000000
101325.000000
101325.000000
101325.000000
101324.591076
101324.904719
101324.603872
101324.858161
101324.858161
101324.628661
101324.807618
101324.628661
101324.707328
101324.663884
101324.707328
101324.756265
101324.904719
101324.591076
101324.993551
101324.628661
101324.807618
101324.944365
101324.974609
101324.663884
101324.756265
101324.603872
101324.756265
101324.707328
101324.974609
101324.904719
101325.000000
101324.663884
101324.974609
101324.603872
101324.663884
101324.944365
101324.944365
101325.000000
101324.993551
101324.807618
101324.591076
101324.591076
101324.756265
101324.993551
101324.904719
101324.944365
101324.858161
101324.993551
101324.628661
101324.603872
101324.707328
101324.974609
101324.807618
101324.858161
101320.172382
101323.875140
101322.728801
101321.544818
101324.923866
101322.122543
101323.325497
101320.323450
101325.000000
101321.031926
101320.616094
101320.172382
101322.728801
101323.325497
101322.122543
101324.343192
101321.544818
101321.031926
101322.728801
101322.122543
101320.616094
101322.122543
101321.544818
101320.616094
101324.700246
101320.172382
101320.323450
101323.875140
101325.000000
101324.700246
101323.875140
101320.323450
101321.031926
101324.923866
101324.700246
101320.172382
101324.343192
101324.343192
101324.923866
101321.031926
101324.343192
101320.323450
101323.325497
101320.616094
101324.923866
101324.700246
101322.728801
101323.875140
101323.325497
101321.544818
101324.119769
101324.794902
101324.147314
101324.694684
101324.694684
101324.585887
101324.200672
101324.200672
101324.370009
101324.276492
101324.370009
101324.475347
101324.794902
101324.119769
101324.986118
101324.200672
101324.585887
101324.880243
101324.945345
101324.276492
101324.475347
101324.147314
101324.475347
101324.370009
101324.945345
101324.794902
101324.276492
101325.000000
101324.945345
101324.147314
101324.276492
101324.880243
101324.880243
101324.986118
101325.000000
101324.585887
101324.119769
101324.119769
101324.475347
101324.986118
101324.794902
101324.880243
101324.694684
101324.986118
101324.200672
101324.147314
101324.370009
101324.945345
101324.585887
101324.694684
101323.564563
101324.665536
101323.609481
101324.502106
101324.502106
101324.324685
101323.696496
101323.696496
101323.972641
101323.820139
101323.972641
101324.144421
101324.665536
101324.977362
101323.564563
101323.696496
101324.324685
101324.910872
101324.804706
101323.820139
101324.144421
101323.609481
101324.144421
101323.972641
101324.910872
101324.665536
101323.820139
101325.000000
101324.910872
101323.609481
101323.820139
101324.804706
101324.804706
101324.977362
101325.000000
101324.324685
101323.564563
101323.564563
101324.144421
101324.977362
101324.665536
101324.804706
101324.502106
101324.977362
101323.696496
101323.609481
101323.972641
101324.910872
101324.324685
101324.502106
101318.931305
101323.585962
101322.144924
101320.656565
101324.904293
101321.382811
101322.895018
101319.121209
101325.000000
101320.011820
101319.489086
101318.931305
101322.895018
101322.144924
101321.382811
101324.174341
101320.656565
101320.011820
101322.144924
101321.382811
101319.489086
101320.656565
101321.382811
101319.489086
101324.623186
101318.931305
101323.585962
101319.121209
101325.000000
101324.623186
101323.585962
101319.121209
101320.011820
101324.904293
101324.623186
101318.931305
101324.174341
101324.174341
101324.904293
101320.011820
101324.174341
101319.121209
101322.895018
101319.489086
101324.904293
101323.585962
101324.623186
101322.144924
101320.656565
101322.895018
101322.910138
101324.513051
101322.975535
101324.275112
101324.275112
101324.016804
101323.102219
101323.102219
101323.504262
101323.504262
101323.282232
101323.754357
101324.513051
101324.967042
101322.910138
101323.102219
101324.016804
101324.870237
101324.715670
101323.282232
101323.754357
101322.975535
101323.754357
101323.504262
101324.870237
101324.513051
101323.282232
101325.000000
101324.870237
101322.975535
101323.282232
101324.715670
101324.715670
101324.967042
101325.000000
101324.016804
101322.910138
101322.910138
101323.754357
101324.967042
101324.513051
101324.715670
101324.275112
101324.967042
101323.102219
101322.975535
101323.504262
101324.870237
101324.016804
101324.275112
101322.139484
101324.333485
101324.007804
101322.228997
101324.007804
101323.654243
101322.402398
101322.402398
101322.952696
101322.952696
101322.648791
101323.295016
101324.333485
101324.954888
101322.402398
101322.139484
101323.654243
101324.822386
101322.648791
101324.610821
101323.295016
101322.228997
101322.952696
101323.295016
101324.822386
101324.333485
101322.648791
101325.000000
101322.228997
101324.822386
101322.648791
101324.610821
101324.610821
101324.954888
101325.000000
101323.654243
101322.139484
101322.139484
101323.295016
101324.954888
101324.333485
101324.610821
101324.007804
101322.402398
101322.228997
101324.954888
101322.952696
101324.822386
101323.654243
101324.007804
101317.482834
101323.248461
101321.463477
101319.619878
101324.881450
101320.519463
101322.392603
101317.718065
101325.000000
101318.821245
101318.173746
101317.482834
101322.392603
101321.463477
101320.519463
101319.619878
101323.977274
101318.821245
101321.463477
101320.519463
101318.173746
101319.619878
101320.519463
101318.173746
101324.533248
101317.482834
101323.248461
101317.718065
101325.000000
101324.533248
101317.718065
101323.248461
101318.821245
101324.881450
101324.533248
101317.482834
101323.977274
101323.977274
101323.977274
101318.821245
101324.881450
101317.718065
101318.173746
101322.392603
101324.881450
101323.248461
101324.533248
101321.463477
101319.619878
101322.392603
101321.233818
101324.122460
101323.693666
101321.351671
101323.693666
101323.228164
101321.579972
101321.579972
101322.304500
101322.304500
101321.904377
101322.755202
101324.122460
101324.940605
101321.579972
101321.233818
101323.228164
101324.766152
101321.904377
101324.487603
101322.755202
101322.304500
101321.351671
101322.755202
101324.766152
101324.122460
101321.904377
101325.000000
101321.351671
101324.766152
101321.904377
101324.487603
101324.487603
101324.940605
101325.000000
101323.228164
101321.233818
101321.233818
101322.755202
101324.487603
101324.122460
101324.940605
101323.693666
101321.579972
101321.351671
101322.304500
101324.940605
101324.766152
101323.228164
101323.693666
101320.172382
101323.875140
101323.325497
101323.325497
101322.728801
101320.323450
101320.616094
101320.616094
101321.544818
101321.544818
101321.031926
101322.122543
101323.875140
101324.923866
101320.616094
101320.172382
101322.728801
101324.700246
101321.031926
101324.343192
101322.122543
101321.544818
101320.323450
101324.700246
101323.875140
101322.122543
101321.031926
101320.323450
101325.000000
101321.031926
101324.700246
101324.343192
101324.343192
101324.923866
101325.000000
101320.172382
101322.728801
101320.172382
101322.122543
101324.343192
101323.875140
101324.923866
101323.325497
101320.616094
101320.323450
101321.544818
101324.923866
101324.700246
101322.728801
101323.325497
101315.802631
101322.856965
101320.673009
101318.417338
101324.854952
101319.517994
101321.809809
101316.090439
101325.000000
101317.440198
101316.647972
101315.802631
101321.809809
101320.673009
101319.517994
101318.417338
101317.440198
101323.748679
101316.647972
101320.673009
101319.517994
101318.417338
101316.647972
101319.517994
101324.428922
101322.856965
101315.802631
101316.090439
101325.000000
101324.428922
101316.090439
101322.856965
101317.440198
101324.854952
101324.428922
101315.802631
101323.748679
101323.748679
101323.748679
101317.440198
101324.854952
101316.090439
101316.647972
101321.809809
101322.856965
101324.854952
101324.428922
101320.673009
101318.417338
101321.809809
101318.931305
101323.585962
101322.895018
101322.895018
101322.144924
101319.489086
101319.121209
101319.489086
101320.656565
101320.656565
101321.382811
101320.011820
101323.585962
101319.489086
101324.904293
101318.931305
101322.144924
101324.623186
101320.011820
101324.174341
101321.382811
101320.656565
101319.121209
101323.585962
101324.623186
101321.382811
101320.011820
101319.121209
101320.011820
101325.000000
101324.623186
101324.174341
101324.174341
101324.904293
101325.000000
101318.931305
101318.931305
101322.144924
101324.174341
101321.382811
101323.585962
101324.904293
101322.895018
101319.489086
101319.121209
101320.656565
101324.623186
101324.904293
101322.144924
101322.895018
101313.863082
101322.405040
101319.760530
101317.029180
101324.824364
101318.361944
101321.137059
101314.211584
101325.000000
101314.886690
101315.845981
101313.863082
101321.137059
101319.760530
101318.361944
101317.029180
101315.845981
101323.484799
101314.886690
101317.029180
101319.760530
101318.361944
101314.886690
101324.308492
101322.405040
101318.361944
101313.863082
101314.211584
101324.308492
101325.000000
101314.211584
101322.405040
101315.845981
101324.824364
101313.863082
101324.308492
101323.484799
101323.484799
101323.484799
101315.845981
101314.211584
101324.824364
101314.886690
101321.137059
101322.405040
101324.824364
101324.308492
101319.760530
101317.029180
101321.137059
101317.482834
101323.248461
101322.392603
101322.392603
101321.463477
101318.173746
101317.718065
101318.173746
101319.619878
101319.619878
101320.519463
101318.821245
101323.248461
101318.173746
101324.881450
101321.463477
101324.533248
101317.482834
101318.821245
101323.977274
101320.519463
101319.619878
101323.248461
101317.718065
101324.533248
101318.821245
101320.519463
101318.821245
101317.718065
101325.000000
101324.533248
101323.977274
101323.977274
101324.881450
101325.000000
101317.482834
101317.482834
101321.463477
101323.977274
101320.519463
101323.248461
101324.881450
101318.173746
101322.392603
101317.718065
101319.619878
101324.533248
101324.881450
101321.463477
101322.392603
101315.802631
101322.856965
101321.809809
101316.647972
101320.673009
101321.809809
101316.090439
101316.647972
101318.417338
101318.417338
101319.517994
101322.856965
101317.440198
101316.647972
101324.854952
101320.673009
101324.428922
101315.802631
101317.440198
101319.517994
101318.417338
101323.748679
101322.856965
101316.090439
101324.428922
101317.440198
101317.440198
101319.517994
101316.090439
101325.000000
101324.428922
101323.748679
101323.748679
101324.854952
101315.802631
101315.802631
101325.000000
101323.748679
101320.673009
101319.517994
101322.856965
101324.854952
101316.647972
101318.417338
101316.090439
101321.809809
101324.428922
101324.854952
101320.673009
101321.809809
101311.634762
101321.885829
101318.712196
101315.434346
101317.033775
101324.789222
101320.364146
101312.052994
101325.000000
101312.863178
101314.014407
101320.364146
101311.634762
101318.712196
101317.033775
101314.014407
101315.434346
101323.181631
101312.863178
101315.434346
101312.863178
101318.712196
101321.885829
101317.033775
101324.170133
101311.634762
101317.033775
101312.052994
101324.170133
101325.000000
101312.052994
101321.885829
101314.014407
101324.789222
101311.634762
101324.170133
101323.181631
101323.181631
101323.181631
101314.014407
101312.052994
101312.863178
101324.789222
101321.885829
101320.364146
101324.789222
101324.170133
101315.434346
101318.712196
101320.364146
101313.863082
101322.405040
101321.137059
101314.886690
101319.760530
101321.137059
101314.211584
101314.886690
101317.029180
101317.029180
101318.361944
101322.405040
101314.886690
101315.845981
101324.824364
101324.308492
101319.760530
101315.845981
101313.863082
101317.029180
101318.361944
101322.405040
101323.484799
101315.845981
101324.308492
101315.845981
101314.211584
101318.361944
101314.211584
101323.484799
101323.484799
101325.000000
101324.308492
101324.824364
101313.863082
101313.863082
101323.484799
101325.000000
101319.760530
101322.405040
101318.361944
101324.824364
101314.886690
101317.029180
101314.211584
101321.137059
101324.308492
101324.824364
101319.760530
101321.137059
101309.082391
101321.291113
101317.511408
101313.607585
101315.512458
101324.748970
101319.478833
101309.580492
101325.000000
101319.478833
101317.511408
101310.545398
101311.916478
101309.082391
101311.916478
101315.512458
101313.607585
101310.545398
101313.607585
101322.834376
101321.291113
101310.545398
101324.011652
101317.511408
101315.512458
101309.082391
101315.512458
101324.011652
101309.580492
101325.000000
101309.580492
101321.291113
101311.916478
101324.748970
101322.834376
101309.082390
101322.834376
101324.011652
101311.916478
101322.834376
101309.580492
101310.545398
101324.748970
101321.291113
101319.478833
101324.748970
101313.607585
101324.011652
101317.511408
101319.478833
101311.634762
101321.885829
101320.364146
101312.863178
101318.712196
101320.364146
101312.052994
101315.434346
101312.863178
101317.033775
101315.434346
101321.885829
101312.863178
101324.170133
101324.789222
101318.712196
101314.014407
101314.014407
101311.634762
101315.434346
101317.033775
101314.014407
101321.885829
101314.014407
101324.170133
101323.181631
101312.052994
101312.052994
101317.033775
101323.181631
101323.181631
101324.170133
101325.000000
101324.789222
101323.181631
101311.634762
101311.634762
101325.000000
101321.885829
101318.712196
101317.033775
101312.863178
101324.789222
101315.434346
101312.052994
101320.364146
101324.170133
101324.789222
101318.712196
101320.364146
101306.191996
101320.617636
101316.151594
101311.538897
101313.789666
101324.703387
101318.476274
101306.780546
101325.000000
101318.476274
101316.151594
101309.540711
101313.789666
101311.538897
101307.920663
101306.191996
101309.540711
101307.920663
101311.538897
101320.617636
101307.920663
101322.441132
101323.832184
101306.191996
101316.151594
101313.789666
101313.789666
101323.832184
101306.780546
101325.000000
101306.780546
101320.617636
101309.540711
101322.441132
101324.703387
101306.191996
101309.540711
101322.441132
101323.832184
101322.441132
101307.920663
101306.780546
101320.617636
101324.703387
101318.476274
101311.538897
101324.703387
101323.832184
101316.151594
101318.476274
101309.082391
101319.478833
101321.291113
101310.545398
101317.511408
101319.478833
101309.580492
101313.607585
101315.512458
101310.545398
101321.291113
101313.607585
101310.545398
101324.011652
101317.511408
101324.748970
101311.916478
101311.916478
101309.082391
101311.916478
101313.607585
101315.512458
101321.291113
101311.916478