# Force         
# CofR          : (0.00000000e+00 0.00000000e+00 0.00000000e+00)
#
# Time          	total_x total_y total_z	pressure_x pressure_y pressure_z	viscous_x viscous_y viscous_z
1                -7.41467585e+01 4.31756464e-02 2.89278825e-02 -7.33426962e+01 4.49928209e-02 1.14377862e-02 -8.04062269e-01 -1.81717450e-03 1.74900963e-02
2                -6.97815247e+03 -1.01944342e+01 -7.93544148e+00 -6.97767949e+03 -1.01941995e+01 -7.93623301e+00 -4.72977695e-01 -2.34652405e-04 7.91524271e-04
3                -6.97844963e+03 -1.74568182e+01 -2.92595448e+00 -6.97872710e+03 -1.74610140e+01 -2.92826183e+00 2.77462741e-01 4.19585539e-03 2.30734828e-03
4                -5.46865874e+03 -1.87396529e+01 5.31207187e-01 -5.46929765e+03 -1.87389445e+01 5.32403079e-01 6.38912406e-01 -7.08351324e-04 -1.19589179e-03
5                -2.59633374e+03 -2.65801873e+01 5.44871031e+00 -2.59678263e+03 -2.65830427e+01 5.44950292e+00 4.48891310e-01 2.85535683e-03 -7.92609078e-04
6                1.12223646e+03 -1.47433186e+01 2.18908622e+01 1.12192866e+03 -1.47442955e+01 2.18938936e+01 3.07793849e-01 9.76812089e-04 -3.03138064e-03
7                3.40745824e+03 -1.18631702e+00 2.48295174e+01 3.40743179e+03 -1.19301138e+00 2.48319656e+01 2.64468642e-02 6.69436178e-03 -2.44825174e-03
8                3.95333382e+03 9.17589019e-01 2.72229527e+01 3.95326452e+03 9.28874094e-01 2.72279573e+01 6.93063663e-02 -1.12850758e-02 -5.00461427e-03
9                3.45239263e+03 2.30957247e+00 2.64181378e+01 3.45238182e+03 2.29805617e+00 2.64167105e+01 1.08098586e-02 1.15162948e-02 1.42731216e-03
10               2.42585956e+03 2.24087991e+01 2.33187589e+01 2.42580608e+03 2.23672008e+01 2.33223779e+01 5.34782361e-02 4.15983613e-02 -3.61893846e-03
11               7.69097214e+02 3.58739845e+01 3.42188814e+01 7.68981304e+02 3.58496003e+01 3.42205013e+01 1.15909769e-01 2.43841983e-02 -1.61990783e-03
12               -4.98214030e+02 5.14627253e+01 3.58152851e+01 -4.98233408e+02 5.13995041e+01 3.58204986e+01 1.93787515e-02 6.32211833e-02 -5.21350482e-03
13               -1.14332401e+03 6.90517466e+01 3.55190540e+01 -1.14333925e+03 6.90132052e+01 3.55255489e+01 1.52473013e-02 3.85413909e-02 -6.49494192e-03
14               -1.27767777e+03 9.96187856e+01 3.23579050e+01 -1.27783058e+03 9.95937632e+01 3.23641733e+01 1.52804726e-01 2.50224556e-02 -6.26823381e-03
15               -1.07950183e+03 1.27550157e+02 3.26672382e+01 -1.07969277e+03 1.27525342e+02 3.26783465e+01 1.90935145e-01 2.48158224e-02 -1.11082997e-02
16               -6.34290386e+02 1.68579879e+02 2.88970842e+01 -6.34442727e+02 1.68565828e+02 2.89007098e+01 1.52341507e-01 1.40513641e-02 -3.62561770e-03
17               -2.12966509e+02 1.87279934e+02 2.22206168e+01 -2.13142691e+02 1.87300182e+02 2.22192238e+01 1.76181674e-01 -2.02485577e-02 1.39303913e-03
18               8.82601917e+01 1.68782868e+02 1.60668177e+01 8.78987238e+01 1.68835791e+02 1.60791159e+01 3.61467907e-01 -5.29237857e-02 -1.22981472e-02
19               2.45930302e+02 1.05021305e+02 1.25794655e+01 2.45398634e+02 1.05105205e+02 1.25982408e+01 5.31668224e-01 -8.38992465e-02 -1.87753076e-02
20               3.10696753e+02 1.71452826e+01 1.03682181e+01 3.10001920e+02 1.72328744e+01 1.03938282e+01 6.94832807e-01 -8.75917821e-02 -2.56100859e-02
21               3.34723139e+02 -7.73658560e+01 9.02265557e+00 3.34059577e+02 -7.72347874e+01 9.02478543e+00 6.63562215e-01 -1.31068588e-01 -2.12985396e-03
22               3.24824308e+02 -1.39407422e+02 8.76621373e+00 3.24243234e+02 -1.39412587e+02 8.75225934e+00 5.81074627e-01 5.16530479e-03 1.39543928e-02
23               2.86912456e+02 -1.41794443e+02 8.98625475e+00 2.86380733e+02 -1.41940867e+02 9.00472494e+00 5.31723098e-01 1.46424391e-01 -1.84701842e-02
24               2.35322740e+02 -1.17782709e+02 9.43266433e+00 2.34795427e+02 -1.18166763e+02 9.45062563e+00 5.27312782e-01 3.84054183e-01 -1.79613008e-02
25               1.94138474e+02 -9.71731413e+01 9.02776714e+00 1.93496676e+02 -9.72965350e+01 9.02139436e+00 6.41797645e-01 1.23393689e-01 6.37278587e-03
26               1.62896932e+02 -6.90853009e+01 8.55508882e+00 1.62102781e+02 -6.89873084e+01 8.54464899e+00 7.94150382e-01 -9.79924795e-02 1.04398314e-02
27               1.69144678e+02 -9.14062162e-01 8.50841560e+00 1.62518008e+02 -6.90061762e-01 8.42554757e+00 6.62666982e+00 -2.24000401e-01 8.28680312e-02
28               2.71237911e+02 4.32358142e+02 -2.56350523e+00 2.65553956e+02 4.32849259e+02 -2.67331924e+00 5.68395546e+00 -4.91116567e-01 1.09814011e-01
29               6.91124568e+02 4.24548199e+02 -2.12048265e+01 6.83610191e+02 4.25449577e+02 -2.13350174e+01 7.51437692e+00 -9.01378712e-01 1.30190951e-01
30               1.89742058e+03 1.53130865e+01 -2.49417374e+01 1.88806405e+03 1.63643696e+01 -2.50623300e+01 9.35652986e+00 -1.05128316e+00 1.20592607e-01
31               3.85352917e+03 -6.48630968e+02 -1.93757393e+01 3.84254306e+03 -6.47544584e+02 -1.94986332e+01 1.09861017e+01 -1.08638449e+00 1.22893897e-01
32               5.25625621e+03 -6.89178595e+02 -2.74613598e+00 5.24683934e+03 -6.88831542e+02 -3.11040798e+00 9.41686273e+00 -3.47052868e-01 3.64271995e-01
33               2.66465318e+03 1.65758580e+04 2.76605145e+01 2.65871965e+03 1.65783599e+04 2.75504075e+01 5.93352979e+00 -2.50187670e+00 1.10107061e-01
34               -9.32186679e+03 5.59716433e+04 3.18001501e+02 -9.31299805e+03 5.59736592e+04 3.18306153e+02 -8.86874162e+00 -2.01590274e+00 -3.04651873e-01
35               -2.47198784e+04 9.84830892e+04 6.89566490e+02 -2.46901210e+04 9.84801715e+04 6.90064106e+02 -2.97573971e+01 2.91765354e+00 -4.97615696e-01
36               -3.67297741e+04 1.22861267e+05 8.24237241e+02 -3.66735685e+04 1.22853909e+05 8.24861391e+02 -5.62055348e+01 7.35800542e+00 -6.24149653e-01
37               -4.61440433e+04 1.24818934e+05 8.48344345e+02 -4.60568136e+04 1.24809870e+05 8.49870890e+02 -8.72296923e+01 9.06403025e+00 -1.52654521e+00
38               -5.34694440e+04 1.07591753e+05 8.24258026e+02 -5.33700082e+04 1.07585876e+05 8.27042764e+02 -9.94357357e+01 5.87757946e+00 -2.78473862e+00
39               -5.79338296e+04 8.11978671e+04 7.74151535e+02 -5.78323305e+04 8.11979764e+04 7.76732231e+02 -1.01499152e+02 -1.09300476e-01 -2.58069582e+00
40               -6.01707594e+04 5.49370162e+04 7.12432881e+02 -6.00670268e+04 5.49447486e+04 7.16474572e+02 -1.03732599e+02 -7.73242282e+00 -4.04169117e+00
41               -6.02209217e+04 3.00572751e+04 6.19728143e+02 -6.01182365e+04 3.00728409e+04 6.26593814e+02 -1.02685151e+02 -1.55658075e+01 -6.86567102e+00
42               -5.94292232e+04 9.64968712e+03 5.38164350e+02 -5.93294331e+04 9.67341835e+03 5.45421567e+02 -9.97901231e+01 -2.37312323e+01 -7.25721717e+00
43               -5.87386476e+04 -4.24116205e+03 4.75988645e+02 -5.86390358e+04 -4.21510287e+03 4.85409149e+02 -9.96118236e+01 -2.60591813e+01 -9.42050362e+00
44               -5.85446687e+04 -1.14996292e+04 4.37999407e+02 -5.84484537e+04 -1.14809508e+04 4.43835859e+02 -9.62150014e+01 -1.86783245e+01 -5.83645176e+00
45               -5.90971345e+04 -1.36998945e+04 3.94634979e+02 -5.90106104e+04 -1.36973795e+04 4.00523770e+02 -8.65240939e+01 -2.51497461e+00 -5.88879082e+00
46               -5.94219535e+04 -1.25031500e+04 3.51543192e+02 -5.93422245e+04 -1.25163645e+04 3.51023745e+02 -7.97290222e+01 1.32145352e+01 5.19447066e-01
47               -5.98268690e+04 -8.91318785e+03 3.03473586e+02 -5.97490506e+04 -8.94131405e+03 3.07192183e+02 -7.78183290e+01 2.81261994e+01 -3.71859703e+00
48               -6.02843697e+04 -4.15696511e+03 2.45570966e+02 -6.02090472e+04 -4.20007644e+03 2.48196902e+02 -7.53224915e+01 4.31113340e+01 -2.62593542e+00
49               -6.03340547e+04 6.38799182e+02 2.05023250e+02 -6.02895098e+04 6.02534684e+02 2.05776977e+02 -4.45449313e+01 3.62644979e+01 -7.53726567e-01
50               -5.98131321e+04 4.27330866e+03 1.71822177e+02 -5.97861170e+04 4.26243693e+03 1.70477109e+02 -2.70151761e+01 1.08717235e+01 1.34506716e+00
51               -5.82257794e+04 6.64081807e+03 1.43638294e+02 -5.82184379e+04 6.65484479e+03 1.43031402e+02 -7.34151887e+00 -1.40267170e+01 6.06891499e-01
52               -5.51977949e+04 7.85373936e+03 1.15630040e+02 -5.52083557e+04 7.88902074e+03 1.18236924e+02 1.05608016e+01 -3.52813810e+01 -2.60688364e+00
53               -5.05245776e+04 8.50061988e+03 9.48649563e+01 -5.05697533e+04 8.54877890e+03 9.70526554e+01 4.51756514e+01 -4.81590193e+01 -2.18769910e+00
54               -4.46177299e+04 8.14528459e+03 7.46962352e+01 -4.47026673e+04 8.19468528e+03 7.43781872e+01 8.49374172e+01 -4.94006844e+01 3.18047995e-01
55               -3.81750133e+04 6.82991500e+03 4.44537508e+01 -3.82985389e+04 6.87457644e+03 4.55606398e+01 1.23525548e+02 -4.46614410e+01 -1.10688906e+00
56               -3.17360253e+04 4.80949330e+03 7.50373413e+00 -3.18925821e+04 4.84830382e+03 9.02695946e+00 1.56556811e+02 -3.88105248e+01 -1.52322532e+00
57               -2.56306445e+04 2.55804626e+03 -2.53740959e+01 -2.58120378e+04 2.58616370e+03 -2.38522491e+01 1.81393311e+02 -2.81174373e+01 -1.52184686e+00
58               -2.02377739e+04 4.55138731e+02 -2.63871788e+01 -2.04231131e+04 4.71955713e+02 -2.66167035e+01 1.85339229e+02 -1.68169813e+01 2.29524648e-01
59               -1.58200966e+04 -1.08759361e+03 -1.47791709e+01 -1.59958453e+04 -1.08050456e+03 -1.53194448e+01 1.75748668e+02 -7.08905110e+00 5.40273962e-01
60               -1.25676961e+04 -1.92943097e+03 -2.66815654e+00 -1.27282595e+04 -1.92884155e+03 -4.36799154e+00 1.60563386e+02 -5.89415975e-01 1.69983501e+00
61               -1.01141844e+04 -2.19308997e+03 5.08320117e-01 -1.02606091e+04 -2.19536458e+03 1.70160448e-01 1.46424613e+02 2.27460969e+00 3.38159669e-01
62               -8.07009096e+03 -1.88652403e+03 3.13068484e-01 -8.20421312e+03 -1.88965386e+03 1.11439887e+00 1.34122161e+02 3.12983223e+00 -8.01330389e-01
63               -6.14647195e+03 -1.17848380e+03 8.85748897e-01 -6.27042238e+03 -1.18329632e+03 2.12410626e+00 1.23950434e+02 4.81252066e+00 -1.23835736e+00
64               -4.26418717e+03 -2.84536828e+02 -5.06642231e-02 -4.37682370e+03 -2.91484983e+02 3.18230720e+00 1.12636522e+02 6.94815538e+00 -3.23297142e+00
65               -2.48398182e+03 5.54000767e+02 1.12715254e+00 -2.58166321e+03 5.44240357e+02 4.17692989e+00 9.76813926e+01 9.76041065e+00 -3.04977735e+00
66               -9.20125138e+02 1.13569581e+03 3.66655320e+00 -1.00433326e+03 1.12453984e+03 5.83903276e+00 8.42081171e+01 1.11559719e+01 -2.17247956e+00
67               3.42010331e+02 1.45735062e+03 7.53936737e+00 2.68163749e+02 1.44629173e+03 8.29598952e+00 7.38465817e+01 1.10588914e+01 -7.56622145e-01
68               1.32857991e+03 1.55864779e+03 1.55796336e+01 1.26025206e+03 1.54820427e+03 1.34093566e+01 6.83278506e+01 1.04435231e+01 2.17027700e+00
69               2.12851936e+03 1.44279918e+03 1.86168728e+01 2.06324323e+03 1.43326092e+03 1.99958419e+01 6.52761357e+01 9.53826734e+00 -1.37896912e+00
70               2.81218600e+03 1.20180652e+03 2.31013059e+01 2.74298659e+03 1.19066761e+03 2.48257280e+01 6.91994108e+01 1.11389071e+01 -1.72442208e+00
71               3.42813369e+03 9.55676064e+02 2.35668255e+01 3.35385069e+03 9.41819389e+02 2.61330747e+01 7.42829954e+01 1.38566745e+01 -2.56624917e+00
72               3.94433314e+03 8.18207758e+02 2.43443244e+01 3.86895140e+03 8.03742763e+02 2.65238829e+01 7.53817312e+01 1.44649949e+01 -2.17955851e+00
73               4.33220041e+03 8.10973889e+02 2.45846117e+01 4.26631891e+03 7.97648819e+02 2.61802163e+01 6.58815007e+01 1.33250706e+01 -1.59560458e+00
74               4.59443202e+03 9.66959831e+02 2.40839942e+01 4.53525926e+03 9.53443705e+02 2.63835159e+01 5.91727568e+01 1.35161265e+01 -2.29952165e+00
75               4.74014224e+03 1.25310611e+03 2.43270703e+01 4.69255966e+03 1.24215589e+03 2.68799875e+01 4.75825755e+01 1.09502264e+01 -2.55291721e+00
76               4.77519291e+03 1.55868275e+03 2.34458156e+01 4.73963468e+03 1.55193236e+03 2.58362516e+01 3.55582281e+01 6.75039730e+00 -2.39043596e+00
77               4.70210083e+03 1.74797795e+03 2.15235594e+01 4.68063105e+03 1.74724708e+03 2.32343008e+01 2.14697799e+01 7.30867064e-01 -1.71074142e+00
78               4.52037573e+03 1.77708249e+03 1.80103069e+01 4.51211311e+03 1.78129425e+03 1.95154122e+01 8.26261318e+00 -4.21176014e+00 -1.50510533e+00
79               4.24834924e+03 1.66151367e+03 1.43509922e+01 4.25126502e+03 1.66844003e+03 1.58453737e+01 -2.91578307e+00 -6.92635779e+00 -1.49438154e+00
80               3.91342789e+03 1.42134343e+03 1.21798532e+01 3.92629650e+03 1.42958515e+03 1.24797764e+01 -1.28686096e+01 -8.24172045e+00 -2.99923181e-01
81               3.55005558e+03 1.09010402e+03 9.63219435e+00 3.57052961e+03 1.09880744e+03 9.43823521e+00 -2.04740278e+01 -8.70341527e+00 1.93959139e-01
82               3.16961192e+03 7.14838743e+02 6.18440010e+00 3.19424960e+03 7.23482868e+02 6.28688462e+00 -2.46376775e+01 -8.64412512e+00 -1.02484515e-01
83               2.78329588e+03 3.59306498e+02 1.92353846e+00 2.81041991e+03 3.66826731e+02 3.04003924e+00 -2.71240264e+01 -7.52023272e+00 -1.11650078e+00
84               2.40355338e+03 8.65185379e+01 6.32376818e-02 2.43154246e+03 9.22735858e+01 7.37718874e-01 -2.79890826e+01 -5.75504798e+00 -6.74481193e-01
85               2.05157399e+03 -8.68852764e+01 -1.21443262e+00 2.08086266e+03 -8.31836387e+01 -5.42383613e-01 -2.92886684e+01 -3.70163765e+00 -6.72049006e-01
86               1.72655525e+03 -2.01720088e+02 -7.50821820e-01 1.75722568e+03 -1.99574505e+02 -9.84203448e-01 -3.06704355e+01 -2.14558376e+00 2.33381628e-01
87               1.43511765e+03 -2.68883655e+02 -3.16270226e-01 1.46607725e+03 -2.67693483e+02 -9.25986874e-01 -3.09596034e+01 -1.19017235e+00 6.09716648e-01
88               1.17443206e+03 -2.96408697e+02 5.14868441e-01 1.20490484e+03 -2.96093949e+02 -2.21139866e-01 -3.04727879e+01 -3.14748050e-01 7.36008307e-01
89               9.43824692e+02 -2.85903131e+02 1.59590156e+00 9.73236495e+02 -2.86414587e+02 8.79292395e-01 -2.94118032e+01 5.11456103e-01 7.16609165e-01
90               7.40766609e+02 -2.46322681e+02 2.71784490e+00 7.68612394e+02 -2.47507179e+02 2.13391736e+00 -2.78457848e+01 1.18449880e+00 5.83927535e-01
91               5.65134246e+02 -1.95640910e+02 3.73961861e+00 5.91210085e+02 -1.96983978e+02 3.27342287e+00 -2.60758383e+01 1.34306830e+00 4.66195738e-01
92               4.13136021e+02 -1.59161612e+02 4.35540505e+00 4.37723457e+02 -1.60114910e+02 4.02625315e+00 -2.45874360e+01 9.53298329e-01 3.29151901e-01
93               2.81002712e+02 -1.50658628e+02 4.41622111e+00 3.04412222e+02 -1.50807066e+02 4.27233115e+00 -2.34095106e+01 1.48438254e-01 1.43889964e-01
94               1.62755529e+02 -1.65684961e+02 4.31277736e+00 1.85343092e+02 -1.65428379e+02 4.17111822e+00 -2.25875632e+01 -2.56581655e-01 1.41659135e-01
95               5.08619531e+01 -1.95322811e+02 3.97284610e+00 7.30714554e+01 -1.95086326e+02 3.84611130e+00 -2.22095024e+01 -2.36485544e-01 1.26734800e-01
96               -6.13249165e+01 -2.28437005e+02 3.68993099e+00 -3.92786138e+01 -2.28580039e+02 3.47863191e+00 -2.20463027e+01 1.43034251e-01 2.11299080e-01
97               -1.76204921e+02 -2.59139232e+02 3.29206008e+00 -1.54356169e+02 -2.59707610e+02 3.08178521e+00 -2.18487528e+01 5.68377780e-01 2.10274874e-01
98               -2.92180656e+02 -2.89223108e+02 2.87223429e+00 -2.70851342e+02 -2.90005812e+02 2.67593826e+00 -2.13293143e+01 7.82704694e-01 1.96296027e-01
99               -4.02875810e+02 -3.19048819e+02 2.37576106e+00 -3.82490912e+02 -3.19790023e+02 2.26225319e+00 -2.03848978e+01 7.41204854e-01 1.13507872e-01
100              -5.00197339e+02 -3.50696088e+02 1.90317773e+00 -4.81021901e+02 -3.51311119e+02 1.83048407e+00 -1.91754378e+01 6.15031450e-01 7.26936597e-02
101              -5.76339495e+02 -3.88767034e+02 1.47592595e+00 -5.58613501e+02 -3.88699565e+02 1.43932109e+00 -1.77259939e+01 -6.74688108e-02 3.66048564e-02
102              -6.30679103e+02 -4.39948549e+02 1.15845479e+00 -6.14293029e+02 -4.39124221e+02 1.18846007e+00 -1.63860733e+01 -8.24328417e-01 -3.00052753e-02
103              -6.64698275e+02 -5.05147384e+02 1.05386328e+00 -6.49395655e+02 -5.03816965e+02 1.06500675e+00 -1.53026196e+01 -1.33041971e+00 -1.11434715e-02
104              -6.79685470e+02 -5.79637475e+02 1.11003466e+00 -6.65429390e+02 -5.77889476e+02 1.04049153e+00 -1.42560791e+01 -1.74799935e+00 6.95431236e-02
105              -6.77741836e+02 -6.60053120e+02 1.26462987e+00 -6.64629292e+02 -6.57975748e+02 1.12735759e+00 -1.31125437e+01 -2.07737263e+00 1.37272275e-01
106              -6.62641868e+02 -7.39694671e+02 1.47142254e+00 -6.50492339e+02 -7.37505500e+02 1.24884103e+00 -1.21495285e+01 -2.18917022e+00 2.22581517e-01
107              -6.37414421e+02 -8.11437360e+02 1.47691931e+00 -6.26096888e+02 -8.09337438e+02 1.38467310e+00 -1.13175330e+01 -2.09992188e+00 9.22462071e-02
108              -6.04811676e+02 -8.69406430e+02 1.65603826e+00 -5.94119125e+02 -8.67353215e+02 1.52233365e+00 -1.06925504e+01 -2.05321578e+00 1.33704614e-01
109              -5.66816381e+02 -9.10845104e+02 1.80472447e+00 -5.56812741e+02 -9.08870841e+02 1.65216380e+00 -1.00036392e+01 -1.97426323e+00 1.52560671e-01
110              -5.26347274e+02 -9.34386032e+02 1.94774692e+00 -5.16966953e+02 -9.32551380e+02 1.73877985e+00 -9.38032026e+00 -1.83465175e+00 2.08967069e-01
111              -4.86199375e+02 -9.43276299e+02 1.92223015e+00 -4.77447001e+02 -9.41606394e+02 1.77719580e+00 -8.75237431e+00 -1.66990465e+00 1.45034356e-01
112              -4.48456619e+02 -9.45874872e+02 1.87652973e+00 -4.40303478e+02 -9.44353447e+02 1.76008925e+00 -8.15314075e+00 -1.52142500e+00 1.16440477e-01
113              -4.14188017e+02 -9.53044485e+02 1.80735126e+00 -4.06711549e+02 -9.51668347e+02 1.71713384e+00 -7.47646792e+00 -1.37613770e+00 9.02174273e-02
114              -3.83756161e+02 -9.77908304e+02 1.70558829e+00 -3.77041670e+02 -9.76661072e+02 1.64990471e+00 -6.71449164e+00 -1.24723266e+00 5.56835824e-02
115              -3.56898188e+02 -1.03293792e+03 1.60101476e+00 -3.51000809e+02 -1.03177096e+03 1.55892473e+00 -5.89737946e+00 -1.16696495e+00 4.20900335e-02
116              -3.33099662e+02 -1.12904596e+03 1.47374459e+00 -3.28067304e+02 -1.12790311e+03 1.44749552e+00 -5.03235724e+00 -1.14285177e+00 2.62490694e-02
117              -3.12217199e+02 -1.27511926e+03 1.32782358e+00 -3.08082975e+02 -1.27390006e+03 1.32382878e+00 -4.13422484e+00 -1.21919241e+00 3.99480070e-03
118              -2.94522793e+02 -1.46835285e+03 1.20475339e+00 -2.91273772e+02 -1.46698234e+03 1.19726306e+00 -3.24902119e+00 -1.37051233e+00 7.49032995e-03
119              -2.80172195e+02 -1.69131126e+03 1.09480169e+00 -2.77714030e+02 -1.68973824e+03 1.07764123e+00 -2.45816431e+00 -1.57301998e+00 1.71604623e-02
120              -2.68902290e+02 -1.91802332e+03 9.56311362e-01 -2.67109344e+02 -1.91633505e+03 9.64082720e-01 -1.79294573e+00 -1.68826526e+00 -7.77135794e-03
121              -2.59742534e+02 -2.12300265e+03 8.97398404e-01 -2.58448673e+02 -2.12135267e+03 8.42355889e-01 -1.29386151e+00 -1.64997643e+00 5.50425148e-02
122              -2.51823745e+02 -2.28976190e+03 7.37503311e-01 -2.50788878e+02 -2.28829319e+03 7.06181448e-01 -1.03486668e+00 -1.46870554e+00 3.13218626e-02
123              -2.44063303e+02 -2.40791889e+03 6.08702675e-01 -2.43030957e+02 -2.40671102e+03 5.55003783e-01 -1.03234567e+00 -1.20787337e+00 5.36988920e-02
124              -2.36685985e+02 -2.47455094e+03 4.25410613e-01 -2.35458983e+02 -2.47364568e+03 4.01047010e-01 -1.22700176e+00 -9.05253896e-01 2.43636027e-02
125              -2.22965236e+02 -2.49015974e+03 2.48595130e-01 -2.21506152e+02 -2.48956012e+03 2.18384628e-01 -1.45908400e+00 -5.99618110e-01 3.02105011e-02
126              -1.84766964e+02 -2.44738463e+03 -7.99856818e-02 -1.82825357e+02 -2.44699916e+03 -4.11598289e-02 -1.94160722e+00 -3.85463967e-01 -3.88258529e-02
127              -1.50965750e+02 -2.38713886e+03 -2.32844312e-01 -1.48651954e+02 -2.38696041e+03 -2.21052195e-01 -2.31379602e+00 -1.78452473e-01 -1.17921163e-02
128              -1.40049165e+02 -2.32488502e+03 -2.67814835e-01 -1.37401918e+02 -2.32481748e+03 -2.56367650e-01 -2.64724718e+00 -6.75325069e-02 -1.14471851e-02
129              -1.43476669e+02 -2.26228106e+03 -2.90278772e-01 -1.40641582e+02 -2.26219480e+03 -2.68913088e-01 -2.83508658e+00 -8.62550009e-02 -2.13656846e-02
130              -1.54784032e+02 -2.20768969e+03 -2.56316899e-01 -1.51761149e+02 -2.20749030e+03 -2.25953960e-01 -3.02288257e+00 -1.99392498e-01 -3.03629386e-02
131              -1.67235928e+02 -2.16663520e+03 -1.90582567e-01 -1.64311490e+02 -2.16636666e+03 -1.70243095e-01 -2.92443823e+00 -2.68535554e-01 -2.03394718e-02
132              -1.77477930e+02 -2.14478141e+03 -1.28279548e-01 -1.74901612e+02 -2.14443697e+03 -1.09856409e-01 -2.57631831e+00 -3.44436362e-01 -1.84231393e-02
133              -1.82613893e+02 -2.14479876e+03 -7.64259934e-02 -1.80619070e+02 -2.14424399e+03 -6.67427535e-02 -1.99482278e+00 -5.54770457e-01 -9.68323987e-03
134              -1.81209366e+02 -2.16885600e+03 -3.48899961e-02 -1.79913254e+02 -2.16799863e+03 -3.33726189e-02 -1.29611175e+00 -8.57366452e-01 -1.51737721e-03
135              -1.73269860e+02 -2.21878260e+03 9.04853181e-03 -1.72721055e+02 -2.21760720e+03 -8.59684869e-03 -5.48804794e-01 -1.17539287e+00 1.76453805e-02
136              -1.59019053e+02 -2.29542410e+03 2.47216089e-02 -1.59251344e+02 -2.29406675e+03 5.31431612e-04 2.32290092e-01 -1.35735117e+00 2.41901773e-02
137              -1.39167528e+02 -2.39709518e+03 1.84688895e-02 -1.40191992e+02 -2.39571464e+03 -4.14769070e-03 1.02446395e+00 -1.38054043e+00 2.26165802e-02
138              -1.14491896e+02 -2.51636364e+03 9.26847495e-03 -1.16293017e+02 -2.51505093e+03 -8.87704705e-03 1.80112147e+00 -1.31270564e+00 1.81455220e-02
139              -8.63206911e+01 -2.63866008e+03 1.55397617e-02 -8.88233283e+01 -2.63740813e+03 -3.27719988e-03 2.50263714e+00 -1.25194619e+00 1.88169616e-02
140              -5.59902487e+01 -2.74816734e+03 1.98753421e-02 -5.90608589e+01 -2.74693243e+03 6.64944734e-04 3.07061020e+00 -1.23490041e+00 1.92103973e-02
141              -2.51276885e+01 -2.83399301e+03 1.62431087e-02 -2.86256488e+01 -2.83281725e+03 3.20899064e-03 3.49796026e+00 -1.17576418e+00 1.30341181e-02
142              4.13948749e+00 -2.88902100e+03 1.70978342e-02 3.06255122e-01 -2.88804336e+03 7.02307719e-03 3.83323237e+00 -9.77637506e-01 1.00747570e-02
143              2.96719457e+01 -2.90765949e+03 2.52330747e-02 2.55646729e+01 -2.90703147e+03 1.84294411e-02 4.10727285e+00 -6.28022271e-01 6.80363355e-03
144              5.00212074e+01 -2.88276832e+03 2.97057118e-02 4.57178239e+01 -2.88257414e+03 2.60853546e-02 4.30338350e+00 -1.94179602e-01 3.62035721e-03
145              6.46791092e+01 -2.81000113e+03 3.65015098e-02 6.03281977e+01 -2.81026347e+03 3.63983636e-02 4.35091157e+00 2.62341267e-01 1.03146151e-04
146              7.39845191e+01 -2.69140321e+03 4.22686421e-02 6.97167700e+01 -2.69212748e+03 4.49251669e-02 4.26774905e+00 7.24273484e-01 -2.65652480e-03
147              7.90560171e+01 -2.53374335e+03 4.91080617e-02 7.49399798e+01 -2.53484325e+03 5.28319225e-02 4.11603721e+00 1.09989832e+00 -3.72386080e-03
148              8.14807871e+01 -2.34992713e+03 5.48240742e-02 7.75267323e+01 -2.35112310e+03 5.56248219e-02 3.95405476e+00 1.19596888e+00 -8.00747672e-04
149              8.29263565e+01 -2.15318355e+03 4.87259634e-02 7.91555050e+01 -2.15420624e+03 5.08129878e-02 3.77085147e+00 1.02269410e+00 -2.08702438e-03
150              8.43747468e+01 -1.95044971e+03 3.99484540e-02 8.07604070e+01 -1.95118760e+03 3.78605865e-02 3.61433984e+00 7.37880436e-01 2.08786756e-03
151              8.58456027e+01 -1.74759149e+03 2.47387439e-02 8.23765733e+01 -1.74803516e+03 3.08819042e-02 3.46902948e+00 4.43661125e-01 -6.14316032e-03
152              8.79857892e+01 -1.52122954e+03 3.04192005e-02 8.46212307e+01 -1.52142123e+03 3.47781241e-02 3.36455850e+00 1.91694087e-01 -4.35892354e-03
153              8.91509638e+01 -1.33018897e+03 3.62018870e-02 8.58405435e+01 -1.33006527e+03 3.94805603e-02 3.31042023e+00 -1.23702006e-01 -3.27867331e-03
154              8.85243038e+01 -1.17595807e+03 4.01428682e-02 8.52888073e+01 -1.17563413e+03 4.14806274e-02 3.23549643e+00 -3.23948388e-01 -1.33775929e-03
155              8.51843201e+01 -1.05710963e+03 4.03598271e-02 8.20753890e+01 -1.05667359e+03 4.11561930e-02 3.10893108e+00 -4.36039281e-01 -7.96365818e-04
156              7.81966049e+01 -9.74274830e+02 4.14559356e-02 7.52699193e+01 -9.73735280e+02 3.83220332e-02 2.92668566e+00 -5.39549575e-01 3.13390244e-03
157              6.71387863e+01 -9.30273370e+02 1.59436823e-02 6.44383287e+01 -9.29549905e+02 3.47050234e-02 2.70045764e+00 -7.23465566e-01 -1.87613411e-02
158              5.22663260e+01 -9.23427261e+02 1.48977751e-02 4.97268239e+01 -9.22396943e+02 2.70530907e-02 2.53950214e+00 -1.03031806e+00 -1.21553155e-02
159              3.39952479e+01 -9.51735284e+02 8.41950275e-03 3.15760370e+01 -9.50415513e+02 1.48475660e-02 2.41921090e+00 -1.31977064e+00 -6.42806320e-03
160              1.30037366e+01 -1.01185042e+03 -3.07118347e-03 1.07314517e+01 -1.01029732e+03 -1.15471113e-03 2.27228494e+00 -1.55309419e+00 -1.91647234e-03
161              -4.86438390e+00 -1.07209897e+03 -2.00118540e-02 -6.97756447e+00 -1.07039605e+03 -1.87605211e-02 2.11318057e+00 -1.70292512e+00 -1.25133289e-03
162              -2.21991140e+01 -1.14805669e+03 -3.81745780e-02 -2.41120975e+01 -1.14632057e+03 -3.60406045e-02 1.91298343e+00 -1.73612946e+00 -2.13397341e-03
163              -4.11733376e+01 -1.25520921e+03 -5.12583799e-02 -4.29182136e+01 -1.25343045e+03 -4.97119747e-02 1.74487596e+00 -1.77875879e+00 -1.54640518e-03
164              -5.50807709e+01 -1.35581456e+03 -5.85003181e-02 -5.67061620e+01 -1.35402485e+03 -5.97793664e-02 1.62539118e+00 -1.78970566e+00 1.27904830e-03
165              -6.31451975e+01 -1.44088755e+03 -6.42697431e-02 -6.46469406e+01 -1.43926792e+03 -6.54618212e-02 1.50174312e+00 -1.61963701e+00 1.19207812e-03
166              -6.50469009e+01 -1.49510206e+03 -6.93197062e-02 -6.64462685e+01 -1.49373121e+03 -6.83578425e-02 1.39936757e+00 -1.37084993e+00 -9.61863647e-04
167              -6.38590653e+01 -1.53140474e+03 -7.08787260e-02 -6.51617411e+01 -1.53035450e+03 -7.16172101e-02 1.30267578e+00 -1.05023973e+00 7.38484145e-04
168              -6.03898962e+01 -1.55193165e+03 -7.75990457e-02 -6.16556571e+01 -1.55115536e+03 -7.65035537e-02 1.26576094e+00 -7.76292766e-01 -1.09549196e-03
169              -5.50129703e+01 -1.55711657e+03 -8.49156764e-02 -5.63046653e+01 -1.55654191e+03 -8.24387241e-02 1.29169501e+00 -5.74665434e-01 -2.47695224e-03
170              -4.82217057e+01 -1.54682398e+03 -8.37136720e-02 -4.95894354e+01 -1.54634402e+03 -8.60445095e-02 1.36772964e+00 -4.79959721e-01 2.33083751e-03
171              -4.05036093e+01 -1.52326942e+03 -8.75717839e-02 -4.19641146e+01 -1.52282855e+03 -8.83579192e-02 1.46050537e+00 -4.40866228e-01 7.86135303e-04
172              -3.24207136e+01 -1.48954254e+03 -8.89797236e-02 -3.39718439e+01 -1.48910923e+03 -8.84519632e-02 1.55113034e+00 -4.33311782e-01 -5.27760439e-04
173              -2.47730890e+01 -1.44931248e+03 -8.71837280e-02 -2.64028768e+01 -1.44888138e+03 -8.48930693e-02 1.62978779e+00 -4.31092292e-01 -2.29065861e-03
174              -1.81329582e+01 -1.40429330e+03 -8.05365766e-02 -1.98244078e+01 -1.40389851e+03 -7.68844862e-02 1.69144954e+00 -3.94783241e-01 -3.65209036e-03
175              -1.26627842e+01 -1.35413118e+03 -6.90662959e-02 -1.44096782e+01 -1.35379474e+03 -6.70093985e-02 1.74689408e+00 -3.36444219e-01 -2.05689741e-03
176              -8.40833349e+00 -1.29612286e+03 -6.07229628e-02 -1.01858884e+01 -1.29585041e+03 -5.88347586e-02 1.77755493e+00 -2.72447342e-01 -1.88820424e-03
177              -5.22960264e+00 -1.22573503e+03 -5.57209584e-02 -7.00671727e+00 -1.22547366e+03 -5.42071166e-02 1.77711463e+00 -2.61367572e-01 -1.51384179e-03
178              -3.05099209e+00 -1.14943096e+03 -5.56646102e-02 -4.80321496e+00 -1.14914020e+03 -5.30355791e-02 1.75222287e+00 -2.90754511e-01 -2.62903111e-03
179              -1.76768786e+00 -1.07394741e+03 -5.68271460e-02 -3.47412822e+00 -1.07363713e+03 -5.21348710e-02 1.70644036e+00 -3.10281113e-01 -4.69227504e-03
180              -1.33754627e+00 -1.00317574e+03 -5.56887913e-02 -2.97772030e+00 -1.00285157e+03 -5.16407844e-02 1.64017403e+00 -3.24163575e-01 -4.04800686e-03
181              -1.76760362e+00 -9.38462607e+02 -5.51336936e-02 -3.32635727e+00 -9.38120545e+02 -5.17354615e-02 1.55875365e+00 -3.42062106e-01 -3.39823213e-03
182              -2.94244759e+00 -8.79567698e+02 -5.25920718e-02 -4.41707259e+00 -8.79158748e+02 -5.17759915e-02 1.47462500e+00 -4.08950279e-01 -8.16080317e-04
183              -4.61822068e+00 -8.24558404e+02 -5.31969399e-02 -6.01178961e+00 -8.24057838e+02 -5.07950456e-02 1.39356892e+00 -5.00565488e-01 -2.40189430e-03
184              -6.61902417e+00 -7.71303183e+02 -4.97167642e-02 -7.91917002e+00 -7.70712909e+02 -4.77642453e-02 1.30014585e+00 -5.90274677e-01 -1.95251893e-03
185              -8.84514750e+00 -7.17548890e+02 -4.67441161e-02 -1.00347108e+01 -7.16913912e+02 -4.43574499e-02 1.18956335e+00 -6.34977843e-01 -2.38666615e-03
186              -1.12058703e+01 -6.58632282e+02 -4.28027912e-02 -1.22655239e+01 -6.58020581e+02 -4.09670743e-02 1.05965356e+00 -6.11701222e-01 -1.83571691e-03
187              -1.35909248e+01 -5.91472198e+02 -3.98815110e-02 -1.45048650e+01 -5.90958560e+02 -3.80622853e-02 9.13940146e-01 -5.13637402e-01 -1.81922567e-03
188              -1.57694977e+01 -5.19966716e+02 -3.69969105e-02 -1.65352283e+01 -5.19623633e+02 -3.52669285e-02 7.65730580e-01 -3.43083654e-01 -1.72998193e-03
189              -1.74640468e+01 -4.46350379e+02 -3.42966913e-02 -1.80959979e+01 -4.46238357e+02 -3.34943781e-02 6.31951041e-01 -1.12021527e-01 -8.02313176e-04