# Moment        
# CofR          : (0.00000000e+00 0.00000000e+00 0.00000000e+00)
#
# Time          	total_x total_y total_z	pressure_x pressure_y pressure_z	viscous_x viscous_y viscous_z
1                3.65558614e-03 6.11733166e-02 -1.38469709e-01 3.51626935e-03 6.16213771e-02 -1.38314377e-01 1.39316790e-04 -4.48060552e-04 -1.55331983e-04
2                1.99459298e+00 4.37902762e+00 -4.51073404e-01 1.99455410e+00 4.37885517e+00 -4.50989247e-01 3.88754887e-05 1.72450617e-04 -8.41568640e-05
3                2.00014521e+00 3.65692239e+00 -1.04783289e+00 2.00020983e+00 3.65688486e+00 -1.04775878e+00 -6.46218559e-05 3.75315380e-05 -7.41076684e-05
4                1.64310787e+00 2.52345021e+00 -7.63576669e-01 1.64314570e+00 2.52372259e+00 -7.64147950e-01 -3.78251859e-05 -2.72382123e-04 5.71280935e-04
5                1.54673749e+00 1.95323140e-01 -6.41231737e-02 1.54719703e+00 1.96013802e-01 -6.50026267e-02 -4.59544583e-04 -6.90661524e-04 8.79452963e-04
6                -1.30153484e+00 -1.10213787e+00 1.47143654e+00 -1.30088494e+00 -1.10171942e+00 1.47017292e+00 -6.49898459e-04 -4.18445374e-04 1.26361956e-03
7                -4.92608657e+00 -4.00448592e-01 3.38038069e+00 -4.92533047e+00 -4.00130470e-01 3.37945944e+00 -7.56094274e-04 -3.18122072e-04 9.21253933e-04
8                -7.25272169e+00 -8.33480680e-01 5.22810974e+00 -7.25220849e+00 -8.33336219e-01 5.23496956e+00 -5.13200486e-04 -1.44460288e-04 -6.85981966e-03
9                -6.88927999e+00 -1.15776984e+00 1.07722583e+00 -6.88939977e+00 -1.15592848e+00 1.07349645e+00 1.19781829e-04 -1.84135760e-03 3.72937830e-03
10               -4.93697314e+00 -2.33354643e+00 3.93020998e+00 -4.93664138e+00 -2.33373335e+00 3.91115236e+00 -3.31760680e-04 1.86923067e-04 1.90576259e-02
11               -3.01258308e+00 -6.62414784e+00 7.71868184e+00 -3.01242015e+00 -6.62157809e+00 7.67502627e+00 -1.62930483e-04 -2.56975357e-03 4.36555621e-02
12               -2.12154095e+00 -8.98630277e+00 1.27282021e+01 -2.12238705e+00 -8.98542140e+00 1.26385994e+01 8.46099191e-04 -8.81368051e-04 8.96027785e-02
13               -4.62417585e-01 -8.09324287e+00 2.05349491e+01 -4.63614852e-01 -8.09650971e+00 2.04624002e+01 1.19726717e-03 3.26683392e-03 7.25489295e-02
14               -3.22641283e-01 -5.57292822e+00 2.92085636e+01 -3.23770916e-01 -5.57322739e+00 2.91453759e+01 1.12963231e-03 2.99170135e-04 6.31876980e-02
15               -1.47240206e+00 -2.54373592e+00 3.22646226e+01 -1.47438757e+00 -2.54838826e+00 3.22215944e+01 1.98550278e-03 4.65233985e-03 4.30281181e-02
16               -3.62943295e+00 1.56061798e-02 3.18253574e+01 -3.63142349e+00 1.02107334e-02 3.17979658e+01 1.99054720e-03 5.39544638e-03 2.73916091e-02
17               -5.56302639e+00 9.14134227e-01 2.66351765e+01 -5.56500700e+00 9.09397446e-01 2.66398523e+01 1.98061016e-03 4.73678109e-03 -4.67572582e-03
18               -6.30015264e+00 8.89078324e-01 1.75151956e+01 -6.30203715e+00 8.73851800e-01 1.75591847e+01 1.88451594e-03 1.52265235e-02 -4.39891645e-02
19               -5.76179645e+00 6.13958448e-01 5.56243915e+00 -5.76338617e+00 5.96632596e-01 5.63139766e+00 1.58972642e-03 1.73258514e-02 -6.89585062e-02
20               -4.29212427e+00 3.51070509e-01 -6.00677582e+00 -4.29402229e+00 3.29532868e-01 -5.95277955e+00 1.89802662e-03 2.15376413e-02 -5.39962621e-02
21               -2.55797458e+00 2.64032992e-01 -1.88636059e+01 -2.56022351e+00 2.55485850e-01 -1.88266137e+01 2.24892587e-03 8.54714211e-03 -3.69921707e-02
22               -7.74380376e-01 1.55537127e-01 -2.84634077e+01 -7.73960745e-01 1.64091280e-01 -2.84388318e+01 -4.19630386e-04 -8.55415298e-03 -2.45758377e-02
23               6.80757395e-01 -1.04550858e-02 -3.36713466e+01 6.82230816e-01 -3.59102609e-02 -3.36875501e+01 -1.47342173e-03 2.54551751e-02 1.62035583e-02
24               2.10756207e+00 -4.16728698e-01 -3.44458391e+01 2.10528680e+00 -4.24983726e-01 -3.45085181e+01 2.27526954e-03 8.25502814e-03 6.26789742e-02
25               3.47062247e+00 -5.78936248e-01 -3.18701673e+01 3.45683256e+00 -5.79578798e-01 -3.19521872e+01 1.37899048e-02 6.42549771e-04 8.20198352e-02
26               4.61779419e+00 -6.41835069e-01 -2.70975395e+01 4.58989797e+00 -6.67681442e-01 -2.71838260e+01 2.78962245e-02 2.58463737e-02 8.62864441e-02
27               5.87583512e+00 -4.85077134e-01 -2.32200562e+01 5.84405839e+00 -4.17463871e-01 -2.31924141e+01 3.17767324e-02 -6.76132627e-02 -2.76421282e-02
28               9.21097605e+00 8.09464808e+00 3.70301503e+02 9.18936691e+00 8.15528720e+00 3.70449177e+02 2.16091380e-02 -6.06391278e-02 -1.47674024e-01
29               9.70282569e+00 2.30248002e+01 3.89683932e+02 9.69500944e+00 2.31103877e+01 3.90093345e+02 7.81625477e-03 -8.55875209e-02 -4.09413073e-01
30               6.76724521e+00 2.37129336e+01 3.69247918e+01 6.77206928e+00 2.37983013e+01 3.74667853e+01 -4.82406999e-03 -8.53676383e-02 -5.41993493e-01
31               1.42339980e+00 1.29607943e+01 -5.58914257e+02 1.43590888e+00 1.30858723e+01 -5.58261414e+02 -1.25090881e-02 -1.25077987e-01 -6.52842715e-01
32               -3.71326832e-01 -7.35333391e+00 -6.06859253e+02 -3.62557920e-01 -6.97145555e+00 -6.06548673e+02 -8.76891237e-03 -3.81878362e-01 -3.10580263e-01
33               4.78151879e+01 -3.73139427e+01 1.49637108e+04 4.78506887e+01 -3.71512554e+01 1.49662043e+04 -3.55008073e-02 -1.62687259e-01 -2.49354654e+00
34               2.38280474e+02 -2.65116510e+02 4.99068061e+04 2.38305195e+02 -2.65376766e+02 4.99089322e+04 -2.47210229e-02 2.60256373e-01 -2.12613558e+00
35               5.39302561e+02 -5.64272308e+02 8.60391974e+04 5.39260964e+02 -5.64818335e+02 8.60369179e+04 4.15967740e-02 5.46027315e-01 2.27948292e+00
36               6.78019803e+02 -6.55257611e+02 1.05755788e+05 6.77994048e+02 -6.55916291e+02 1.05749607e+05 2.57547326e-02 6.58679935e-01 6.18110764e+00
37               7.10496273e+02 -6.53735799e+02 1.06013318e+05 7.10457479e+02 -6.55335157e+02 1.06005569e+05 3.87939516e-02 1.59935738e+00 7.74881749e+00
38               6.28963772e+02 -6.15058214e+02 9.00764891e+04 6.28939135e+02 -6.17906832e+02 9.00713052e+04 2.46376165e-02 2.84861802e+00 5.18392091e+00
39               5.01376638e+02 -5.61944903e+02 6.68344476e+04 5.01372168e+02 -5.64561700e+02 6.68341007e+04 4.47019269e-03 2.61679756e+00 3.46918110e-01
40               3.72747717e+02 -5.01135328e+02 4.41893104e+04 3.72748247e+02 -5.05038455e+02 4.41953822e+04 -5.29630153e-04 3.90312649e+00 -6.07183213e+00
41               2.39729357e+02 -4.21172086e+02 2.33038840e+04 2.39765112e+02 -4.27543732e+02 2.33168637e+04 -3.57558371e-02 6.37164543e+00 -1.29796907e+01
42               1.21879320e+02 -3.52750912e+02 6.65342693e+03 1.22019185e+02 -3.59563765e+02 6.67395313e+03 -1.39864761e-01 6.81285321e+00 -2.05262052e+01
43               2.07615112e+01 -3.01376175e+02 -4.33258817e+03 2.08251175e+01 -3.10082972e+02 -4.30964087e+03 -6.36063125e-02 8.70679675e+00 -2.29472989e+01
44               -4.88048377e+01 -2.69016131e+02 -9.99171473e+03 -4.86883221e+01 -2.74593920e+02 -9.97477760e+03 -1.16515528e-01 5.57778845e+00 -1.69371371e+01
45               -8.79006368e+01 -2.29888208e+02 -1.13956649e+04 -8.78300287e+01 -2.35705450e+02 -1.13920178e+04 -7.06080765e-02 5.81724282e+00 -3.64714879e+00
46               -1.00841430e+02 -1.80118794e+02 -1.00225092e+04 -1.00744392e+02 -1.80066755e+02 -1.00315526e+04 -9.70381535e-02 -5.20389283e-02 9.04340559e+00
47               -9.65984649e+01 -1.27524846e+02 -6.80554471e+03 -9.65669670e+01 -1.31197859e+02 -6.82634974e+03 -3.14979196e-02 3.67301347e+00 2.08050339e+01
48               -8.32493123e+01 -6.12276044e+01 -2.65581497e+03 -8.34153116e+01 -6.37978716e+01 -2.68703230e+03 1.65999298e-01 2.57026717e+00 3.12173329e+01
49               -5.79758296e+01 -1.17632404e+01 1.16504113e+03 -5.85295390e+01 -1.25898434e+01 1.14152746e+03 5.53709381e-01 8.26602932e-01 2.35136728e+01
50               -1.47622256e+01 3.32962231e+01 3.75477489e+03 -1.54630834e+01 3.38870997e+01 3.75266794e+03 7.00857804e-01 -5.90876662e-01 2.10695575e+00
51               2.62097194e+01 7.47159120e+01 5.11372279e+03 2.53622707e+01 7.44610617e+01 5.13005168e+03 8.47448728e-01 2.54850291e-01 -1.63288879e+01
52               6.02942986e+01 1.11964761e+02 5.49723821e+03 5.97012143e+01 1.09283927e+02 5.52679546e+03 5.93084337e-01 2.68083450e+00 -2.95572548e+01
53               8.44639937e+01 1.35637933e+02 5.47159005e+03 8.38589101e+01 1.33497018e+02 5.50782731e+03 6.05083552e-01 2.14091411e+00 -3.62372611e+01
54               1.02446553e+02 1.51011038e+02 4.97769761e+03 1.01915012e+02 1.50215409e+02 5.01415004e+03 5.31540788e-01 7.95628858e-01 -3.64524315e+01
55               1.03999702e+02 1.65156326e+02 4.13853224e+03 1.03651721e+02 1.62798924e+02 4.17128405e+03 3.47980561e-01 2.35740228e+00 -3.27518141e+01
56               8.92623511e+01 1.69518286e+02 3.04696274e+03 8.92587965e+01 1.67794227e+02 3.07277229e+03 3.55466749e-03 1.72405891e+00 -2.58095563e+01
57               6.79292963e+01 1.63015824e+02 1.85374021e+03 6.81234908e+01 1.61291652e+02 1.87063436e+03 -1.94194476e-01 1.72417129e+00 -1.68941446e+01
58               4.65698088e+01 1.45571011e+02 7.35007286e+02 4.67015202e+01 1.44166193e+02 7.42417773e+02 -1.31711318e-01 1.40481809e+00 -7.41048643e+00
59               2.90080715e+01 1.23962008e+02 -1.38829841e+02 2.90168058e+01 1.22688207e+02 -1.38892307e+02 -8.73424753e-03 1.27380128e+00 6.24652213e-02
60               1.83491526e+01 1.03720495e+02 -6.95188489e+02 1.82418761e+01 1.02605217e+02 -7.00954077e+02 1.07276509e-01 1.11527812e+00 5.76558733e+00
61               1.07567250e+01 8.80975431e+01 -8.93018785e+02 1.06418888e+01 8.65393637e+01 -9.01766547e+02 1.14836226e-01 1.55817940e+00 8.74776223e+00
62               5.62558523e+00 7.44308245e+01 -7.18341025e+02 5.48338046e+00 7.29427781e+01 -7.27860685e+02 1.42204768e-01 1.48804638e+00 9.51965946e+00
63               3.94826497e+00 6.18779184e+01 -2.32243923e+02 3.74990597e+00 6.03138235e+01 -2.42268945e+02 1.98359004e-01 1.56409491e+00 1.00250215e+01
64               4.01264411e+00 5.15565153e+01 3.71158527e+02 3.80669427e+00 4.90013653e+01 3.60550846e+02 2.05949842e-01 2.55514996e+00 1.06076811e+01
65               4.42920868e+00 4.19067436e+01 9.03426272e+02 4.23024210e+00 3.96389336e+01 8.91465017e+02 1.98966582e-01 2.26781006e+00 1.19612551e+01
66               4.44909340e+00 3.32088188e+01 1.21913297e+03 4.23483015e+00 3.19050874e+01 1.20661684e+03 2.14263251e-01 1.30373147e+00 1.25161214e+01
67               4.54781605e+00 2.47215559e+01 1.32368316e+03 4.30056204e+00 2.49750603e+01 1.31197533e+03 2.47254008e-01 -2.53504424e-01 1.17078262e+01
68               4.04447057e+00 1.33085058e+01 1.25067818e+03 3.81011241e+00 1.64781568e+01 1.24066398e+03 2.34358152e-01 -3.16965096e+00 1.00141971e+01
69               1.78923241e+00 7.09139737e+00 1.01492210e+03 1.61207730e+00 7.04984534e+00 1.00713701e+03 1.77155111e-01 4.15520317e-02 7.78508670e+00
70               -1.61809336e+00 -6.60805137e-01 7.04011794e+02 -1.74320668e+00 -6.62697080e-01 6.96194120e+02 1.25113319e-01 1.89194293e-03 7.81767332e+00
71               -4.39884675e+00 -4.59758134e+00 4.15406036e+02 -4.48709901e+00 -5.13321934e+00 4.06540847e+02 8.82522599e-02 5.35638007e-01 8.86518956e+00
72               -5.09504812e+00 -8.25053589e+00 2.19175004e+02 -5.18898568e+00 -8.49928782e+00 2.09818353e+02 9.39375627e-02 2.48751932e-01 9.35665045e+00
73               -3.75997331e+00 -1.09509113e+01 1.40768904e+02 -3.98084654e+00 -1.05369721e+01 1.31010494e+02 2.20873226e-01 -4.13939178e-01 9.75840997e+00
74               -1.80280652e+00 -1.20236383e+01 2.28784865e+02 -2.02339851e+00 -1.23861062e+01 2.17613927e+02 2.20591986e-01 3.62467866e-01 1.11709385e+01
75               -1.80619126e-01 -1.31293673e+01 4.55271586e+02 -3.78482581e-01 -1.37863962e+01 4.45324360e+02 1.97863455e-01 6.57028896e-01 9.94722561e+00
76               1.15686488e+00 -1.31213278e+01 7.25136669e+02 9.96507013e-01 -1.36653103e+01 7.18104029e+02 1.60357864e-01 5.43982482e-01 7.03263913e+00
77               2.31545657e+00 -1.21624479e+01 9.32374690e+02 2.18852440e+00 -1.22878394e+01 9.30202334e+02 1.26932170e-01 1.25391473e-01 2.17235638e+00
78               3.30055482e+00 -1.01259504e+01 1.04478164e+03 3.20546167e+00 -1.02187767e+01 1.04685412e+03 9.50931555e-02 9.28263140e-02 -2.07247897e+00
79               3.84400218e+00 -8.21318586e+00 1.06794880e+03 3.77707008e+00 -8.26002743e+00 1.07209313e+03 6.69320959e-02 4.68415710e-02 -4.14432414e+00
80               3.59326972e+00 -7.36481369e+00 1.00327959e+03 3.54710091e+00 -6.48373850e+00 1.00811551e+03 4.61688111e-02 -8.81075190e-01 -4.83592037e+00
81               2.49051880e+00 -6.03809958e+00 8.56687331e+02 2.54306310e+00 -4.82219066e+00 8.61678034e+02 -5.25442912e-02 -1.21590891e+00 -4.99070262e+00
82               4.62426712e-01 -3.51815434e+00 6.49580660e+02 6.08386931e-01 -2.79623908e+00 6.54319623e+02 -1.45960219e-01 -7.21915258e-01 -4.73896344e+00
83               -2.14372884e+00 1.89764057e-01 4.31138431e+02 -1.99364872e+00 -2.86603524e-01 4.34951416e+02 -1.50080122e-01 4.76367581e-01 -3.81298454e+00
84               -5.03131308e+00 1.61107596e+00 2.49898288e+02 -4.87141556e+00 1.50248281e+00 2.52519312e+02 -1.59897515e-01 1.08593145e-01 -2.62102412e+00
85               -7.93865829e+00 2.51260692e+00 1.24162638e+02 -7.76845691e+00 2.34878965e+00 1.25462708e+02 -1.70201371e-01 1.63817269e-01 -1.30006924e+00
86               -1.02772852e+01 1.91521230e+00 2.21295927e+01 -1.01139375e+01 2.44098871e+00 2.25387150e+01 -1.63347727e-01 -5.25776417e-01 -4.09122228e-01
87               -1.17259773e+01 1.12577796e+00 -5.92115848e+01 -1.15875569e+01 1.98616768e+00 -5.93459804e+01 -1.38420368e-01 -8.60389724e-01 1.34395568e-01
88               -1.21470326e+01 -9.74078838e-02 -1.18153792e+02 -1.20614314e+01 8.60301774e-01 -1.18909174e+02 -8.56011814e-02 -9.57709658e-01 7.55381042e-01
89               -1.15450255e+01 -1.55452330e+00 -1.48981521e+02 -1.15072485e+01 -6.21005224e-01 -1.50389879e+02 -3.77770441e-02 -9.33518072e-01 1.40835745e+00
90               -1.02066129e+01 -2.96371546e+00 -1.50626856e+02 -1.02007887e+01 -2.20296976e+00 -1.52590216e+02 -5.82424452e-03 -7.60745699e-01 1.96336000e+00
91               -8.54834660e+00 -4.28999996e+00 -1.31946782e+02 -8.56473476e+00 -3.64728946e+00 -1.34071878e+02 1.63881650e-02 -6.42710499e-01 2.12509565e+00
92               -6.95198107e+00 -5.31216684e+00 -1.12606573e+02 -6.99079636e+00 -4.75296093e+00 -1.14464257e+02 3.88152905e-02 -5.59205909e-01 1.85768370e+00
93               -5.65118765e+00 -5.85269259e+00 -1.05848782e+02 -5.69184645e+00 -5.42133142e+00 -1.07087120e+02 4.06588059e-02 -4.31361177e-01 1.23833808e+00
94               -4.61375084e+00 -6.14735642e+00 -1.10917646e+02 -4.64371656e+00 -5.73594479e+00 -1.11839343e+02 2.99657257e-02 -4.11411626e-01 9.21697372e-01
95               -3.80258292e+00 -6.12953741e+00 -1.24320373e+02 -3.82059153e+00 -5.77616342e+00 -1.25227563e+02 1.80086124e-02 -3.53373990e-01 9.07190679e-01
96               -3.18660542e+00 -6.04622145e+00 -1.41714741e+02 -3.19226585e+00 -5.68798981e+00 -1.42851109e+02 5.66043083e-03 -3.58231641e-01 1.13636755e+00
97               -2.72989891e+00 -5.80141379e+00 -1.60145509e+02 -2.72863884e+00 -5.47987671e+00 -1.61558097e+02 -1.26006857e-03 -3.21537087e-01 1.41258785e+00
98               -2.42794149e+00 -5.45233440e+00 -1.80018528e+02 -2.41972038e+00 -5.17591908e+00 -1.81574684e+02 -8.22111354e-03 -2.76415318e-01 1.55615586e+00
99               -2.24380480e+00 -4.98625980e+00 -2.00467879e+02 -2.23352962e+00 -4.79494636e+00 -2.02010720e+02 -1.02751797e-02 -1.91313440e-01 1.54284149e+00
100              -2.11346911e+00 -4.49999519e+00 -2.22074926e+02 -2.10447838e+00 -4.35489926e+00 -2.23543999e+02 -8.99073001e-03 -1.45095926e-01 1.46907263e+00
101              -1.96891022e+00 -4.05538448e+00 -2.47023960e+02 -1.96640221e+00 -3.92850463e+00 -2.47996153e+02 -2.50800564e-03 -1.26879844e-01 9.72192932e-01
102              -1.74610843e+00 -3.71946492e+00 -2.78090351e+02 -1.75231518e+00 -3.61435020e+00 -2.78537100e+02 6.20674995e-03 -1.05114717e-01 4.46749776e-01
103              -1.46194785e+00 -3.49473389e+00 -3.14395081e+02 -1.47287774e+00 -3.38834245e+00 -3.14538621e+02 1.09298941e-02 -1.06391444e-01 1.43540314e-01
104              -1.12081511e+00 -3.36294549e+00 -3.52934102e+02 -1.13507711e+00 -3.20834887e+00 -3.52863987e+02 1.42619974e-02 -1.54596615e-01 -7.01147982e-02
105              -7.26396425e-01 -3.27060085e+00 -3.92254556e+02 -7.40712172e-01 -3.09069254e+00 -3.92030677e+02 1.43157470e-02 -1.79908318e-01 -2.23879369e-01
106              -3.21395667e-01 -3.18934048e+00 -4.28615414e+02 -3.34515805e-01 -2.96392799e+00 -4.28382466e+02 1.31201388e-02 -2.25412489e-01 -2.32948243e-01
107              4.24376441e-02 -2.90528402e+00 -4.59184104e+02 3.26142202e-02 -2.83347785e+00 -4.59055675e+02 9.82342389e-03 -7.18061700e-02 -1.28429286e-01
108              3.36084514e-01 -2.79204624e+00 -4.82238361e+02 3.27635488e-01 -2.69362838e+00 -4.82098152e+02 8.44902553e-03 -9.84178594e-02 -1.40208878e-01
109              5.50628076e-01 -2.66134428e+00 -4.98504660e+02 5.42816771e-01 -2.55516208e+00 -4.98318048e+02 7.81130510e-03 -1.06182204e-01 -1.86612018e-01
110              6.85176636e-01 -2.54295505e+00 -5.08585900e+02 6.78943518e-01 -2.39675766e+00 -5.08360568e+02 6.23311804e-03 -1.46197396e-01 -2.25332581e-01
111              7.54292309e-01 -2.30005715e+00 -5.14992268e+02 7.49913660e-01 -2.22401079e+00 -5.14742107e+02 4.37864903e-03 -7.60463665e-02 -2.50160973e-01
112              7.80588501e-01 -2.12353902e+00 -5.22117822e+02 7.77133869e-01 -2.03945417e+00 -5.21839932e+02 3.45463206e-03 -8.40848542e-02 -2.77890726e-01
113              7.91016780e-01 -1.92352486e+00 -5.34641284e+02 7.86850263e-01 -1.85817167e+00 -5.34355017e+02 4.16651703e-03 -6.53531929e-02 -2.86266695e-01
114              7.83771823e-01 -1.74528613e+00 -5.57874274e+02 7.79325012e-01 -1.69601421e+00 -5.57586622e+02 4.44681108e-03 -4.92719191e-02 -2.87651487e-01
115              7.68102817e-01 -1.58056121e+00 -5.96447378e+02 7.65193835e-01 -1.54330693e+00 -5.96147710e+02 2.90898234e-03 -3.72542828e-02 -2.99667286e-01
116              7.52543151e-01 -1.41518193e+00 -6.53631843e+02 7.51783210e-01 -1.39673681e+00 -6.53316562e+02 7.59941200e-04 -1.84451120e-02 -3.15280416e-01
117              7.34606920e-01 -1.27234500e+00 -7.31662029e+02 7.35713463e-01 -1.25431024e+00 -7.31296102e+02 -1.10654311e-03 -1.80347592e-02 -3.65926933e-01
118              7.10786419e-01 -1.13933214e+00 -8.27944483e+02 7.13519328e-01 -1.12098631e+00 -8.27531790e+02 -2.73290859e-03 -1.83458276e-02 -4.12693031e-01
119              6.77937478e-01 -1.01693131e+00 -9.34390051e+02 6.81463890e-01 -1.00177329e+00 -9.33936303e+02 -3.52641199e-03 -1.51580184e-02 -4.53748690e-01
120              6.31071227e-01 -9.03020168e-01 -1.04040383e+03 6.34632508e-01 -8.95429228e-01 -1.03996814e+03 -3.56128086e-03 -7.59093977e-03 -4.35688562e-01
121              5.71492350e-01 -8.09148147e-01 -1.13554739e+03 5.72358850e-01 -7.94761525e-01 -1.13519258e+03 -8.66499348e-04 -1.43866212e-02 -3.54811347e-01
122              5.00110638e-01 -7.05687476e-01 -1.21372359e+03 5.02478371e-01 -6.89054237e-01 -1.21349078e+03 -2.36773237e-03 -1.66332392e-02 -2.32806910e-01
123              4.27568406e-01 -5.96009629e-01 -1.27127398e+03 4.28590989e-01 -5.80469584e-01 -1.27114710e+03 -1.02258320e-03 -1.55400455e-02 -1.26883411e-01
124              3.64998972e-01 -4.84768444e-01 -1.30731000e+03 3.67276115e-01 -4.75481600e-01 -1.30727237e+03 -2.27714331e-03 -9.28684331e-03 -3.76294050e-02
125              3.18737809e-01 -3.51387695e-01 -1.32280368e+03 3.19133871e-01 -3.45249932e-01 -1.32282899e+03 -3.96062522e-04 -6.13776276e-03 2.53097810e-02
126              1.37035862e-01 -4.68343614e-02 -1.32024254e+03 1.37064486e-01 -6.57252828e-02 -1.32028629e+03 -2.86242863e-05 1.88909214e-02 4.37502369e-02
127              7.62398338e-02 1.50901277e-01 -1.30374553e+03 7.71496527e-02 1.38781872e-01 -1.30380460e+03 -9.09818876e-04 1.21194057e-02 5.90671215e-02
128              1.36464610e-01 2.18833931e-01 -1.27811886e+03 1.37083880e-01 2.04428292e-01 -1.27818398e+03 -6.19269650e-04 1.44056396e-02 6.51149525e-02
129              2.22631130e-01 2.43101158e-01 -1.24669812e+03 2.19381519e-01 2.16883608e-01 -1.24673656e+03 3.24961060e-03 2.62175501e-02 3.84470226e-02
130              3.25776215e-01 2.19105149e-01 -1.21367645e+03 3.21340351e-01 1.88845312e-01 -1.21369275e+03 4.43586431e-03 3.02598367e-02 1.62998082e-02
131              3.96997135e-01 1.56167717e-01 -1.18283250e+03 3.95593894e-01 1.31930175e-01 -1.18283036e+03 1.40324047e-03 2.42375424e-02 -2.14316923e-03
132              3.98554573e-01 9.92528769e-02 -1.15775858e+03 4.00729654e-01 7.76949611e-02 -1.15768922e+03 -2.17508047e-03 2.15579158e-02 -6.93628933e-02
133              3.54384922e-01 3.62931006e-02 -1.14075504e+03 3.60682259e-01 2.77745740e-02 -1.14055860e+03 -6.29733655e-03 8.51852658e-03 -1.96434687e-01
134              2.78764297e-01 -2.15302556e-02 -1.13364845e+03 2.86387861e-01 -2.57709288e-02 -1.13330172e+03 -7.62356395e-03 4.24067320e-03 -3.46730666e-01
135              1.96144076e-01 -6.84682292e-02 -1.13828255e+03 2.05366017e-01 -6.39809235e-02 -1.13781486e+03 -9.22194078e-03 -4.48730574e-03 -4.67686975e-01
136              9.87648300e-02 -8.71931412e-02 -1.15590080e+03 1.08794667e-01 -8.16109204e-02 -1.15538033e+03 -1.00298373e-02 -5.58222076e-03 -5.20468694e-01
137              -3.92558008e-03 -9.00177453e-02 -1.18582531e+03 5.67737759e-03 -8.45747569e-02 -1.18531274e+03 -9.60295767e-03 -5.44298838e-03 -5.12568015e-01
138              -1.10063243e-01 -7.92997766e-02 -1.22502740e+03 -1.02237585e-01 -7.66107461e-02 -1.22454269e+03 -7.82565814e-03 -2.68903054e-03 -4.84705948e-01
139              -2.13151223e-01 -7.08669136e-02 -1.26579113e+03 -2.07125920e-01 -6.83145775e-02 -1.26535218e+03 -6.02530323e-03 -2.55233611e-03 -4.38949423e-01
140              -3.08977786e-01 -5.12881433e-02 -1.30035686e+03 -3.03739084e-01 -5.06698153e-02 -1.29998538e+03 -5.23870255e-03 -6.18328032e-04 -3.71480655e-01
141              -3.85730513e-01 -3.59368901e-02 -1.32251637e+03 -3.82037451e-01 -3.47428997e-02 -1.32224496e+03 -3.69306215e-03 -1.19399039e-03 -2.71412235e-01
142              -4.27838899e-01 -2.10327586e-02 -1.32856316e+03 -4.25537343e-01 -1.90552294e-02 -1.32841789e+03 -2.30155569e-03 -1.97752917e-03 -1.45266344e-01
143              -4.30754925e-01 -9.55778433e-03 -1.31586441e+03 -4.29932191e-01 -8.38646112e-03 -1.31586904e+03 -8.22734035e-04 -1.17132321e-03 4.63314991e-03
144              -3.95489906e-01 -3.79795232e-03 -1.28185696e+03 -3.95686551e-01 -3.64021095e-03 -1.28202085e+03 1.96645354e-04 -1.57741370e-04 1.63887085e-01
145              -3.27683239e-01 -5.76061118e-03 -1.22554101e+03 -3.29040732e-01 -7.01079821e-03 -1.22586252e+03 1.35749254e-03 1.25018703e-03 3.21514655e-01
146              -2.43399363e-01 -1.08694982e-02 -1.14870875e+03 -2.45793860e-01 -1.41659344e-02 -1.14919687e+03 2.39449672e-03 3.29643615e-03 4.88114814e-01
147              -1.51119611e-01 -1.81010572e-02 -1.05483840e+03 -1.53901095e-01 -2.21164473e-02 -1.05545769e+03 2.78148422e-03 4.01539010e-03 6.19297368e-01
148              -6.48667045e-02 -2.25547783e-02 -9.50658561e+02 -6.75838050e-02 -2.59395007e-02 -9.51293893e+02 2.71710049e-03 3.38472242e-03 6.35332342e-01
149              8.80633516e-03 -2.08567163e-02 -8.43399458e+02 6.56946993e-03 -2.27248710e-02 -8.43950246e+02 2.23686523e-03 1.86815470e-03 5.50788290e-01
150              6.20771536e-02 -1.42221860e-02 -7.38061110e+02 5.99828616e-02 -1.67481180e-02 -7.38464871e+02 2.09429196e-03 2.52593203e-03 4.03761769e-01
151              1.01545448e-01 -8.16199716e-03 -6.38301053e+02 9.96534520e-02 -1.36639681e-02 -6.38553794e+02 1.89199565e-03 5.50197097e-03 2.52740833e-01
152              1.35095542e-01 -1.49245551e-02 -5.33801692e+02 1.33309750e-01 -1.85615186e-02 -5.33914430e+02 1.78579164e-03 3.63696347e-03 1.12737968e-01
153              1.56064263e-01 -2.13379661e-02 -4.51721111e+02 1.54410819e-01 -2.30873483e-02 -4.51684381e+02 1.65344435e-03 1.74938222e-03 -3.67302839e-02
154              1.64402333e-01 -2.50750356e-02 -3.91691360e+02 1.63031302e-01 -2.50324333e-02 -3.91542789e+02 1.37103109e-03 -4.26023773e-05 -1.48570924e-01
155              1.64413104e-01 -2.53698266e-02 -3.51891692e+02 1.63613346e-01 -2.50013580e-02 -3.51660223e+02 7.99758373e-04 -3.68468556e-04 -2.31469233e-01
156              1.55686587e-01 -2.64010241e-02 -3.30927022e+02 1.55663101e-01 -2.28211327e-02 -3.30615746e+02 2.34860123e-05 -3.57989140e-03 -3.11275271e-01
157              1.42713105e-01 -1.52143072e-02 -3.28404098e+02 1.41888883e-01 -2.01696754e-02 -3.27976241e+02 8.24221495e-04 4.95536823e-03 -4.27856787e-01
158              1.16705147e-01 -1.14928365e-02 -3.41883949e+02 1.17091838e-01 -1.85033009e-02 -3.41297892e+02 -3.86690687e-04 7.01046436e-03 -5.86057596e-01
159              8.60445597e-02 -1.49272309e-02 -3.69196954e+02 8.64716809e-02 -1.86022386e-02 -3.68482707e+02 -4.27121213e-04 3.67500774e-03 -7.14246839e-01
160              5.13790510e-02 -2.26405370e-02 -4.08024999e+02 5.18970783e-02 -2.45744121e-02 -4.07226482e+02 -5.18027324e-04 1.93387519e-03 -7.98516738e-01
161              1.99241900e-02 -3.35475313e-02 -4.42641053e+02 2.05117296e-02 -3.48399225e-02 -4.41821692e+02 -5.87539648e-04 1.29239111e-03 -8.19361448e-01
162              -5.53629101e-03 -4.56168373e-02 -4.82241256e+02 -5.00212204e-03 -4.68886940e-02 -4.81460685e+02 -5.34168966e-04 1.27185664e-03 -7.80571541e-01
163              -2.60737509e-02 -5.67982390e-02 -5.35273682e+02 -2.55055573e-02 -5.74181943e-02 -5.34529413e+02 -5.68193546e-04 6.19955275e-04 -7.44268193e-01
164              -4.26957024e-02 -6.44181075e-02 -5.83394875e+02 -4.25084875e-02 -6.52208610e-02 -5.82671312e+02 -1.87214847e-04 8.02753482e-04 -7.23563513e-01
165              -5.21941612e-02 -6.82890338e-02 -6.23503933e+02 -5.24174488e-02 -6.99640478e-02 -6.22848613e+02 2.23287566e-04 1.67501396e-03 -6.55320112e-01
166              -5.67893392e-02 -7.03510645e-02 -6.49146775e+02 -5.70436437e-02 -7.24497422e-02 -6.48580320e+02 2.54304493e-04 2.09867769e-03 -5.66455026e-01
167              -5.70028414e-02 -7.29532777e-02 -6.67679312e+02 -5.73367496e-02 -7.39249779e-02 -6.67233090e+02 3.33908137e-04 9.71700285e-04 -4.46221361e-01
168              -5.46830437e-02 -7.43775763e-02 -6.80193097e+02 -5.50107074e-02 -7.50398488e-02 -6.79830023e+02 3.27663669e-04 6.62272496e-04 -3.63074038e-01
169              -5.12242055e-02 -7.39198002e-02 -6.86749863e+02 -5.15444167e-02 -7.49282247e-02 -6.86425183e+02 3.20211181e-04 1.00842449e-03 -3.24679774e-01
170              -4.85426054e-02 -7.18134100e-02 -6.86767775e+02 -4.84585525e-02 -7.28662803e-02 -6.86438456e+02 -8.40529661e-05 1.05287029e-03 -3.29319065e-01
171              -4.43636522e-02 -6.79544426e-02 -6.80527929e+02 -4.45411077e-02 -6.92119308e-02 -6.80178951e+02 1.77455545e-04 1.25748815e-03 -3.48977820e-01
172              -3.86287815e-02 -6.36701316e-02 -6.68848976e+02 -3.92531809e-02 -6.51189626e-02 -6.68484566e+02 6.24399396e-04 1.44883096e-03 -3.64410088e-01
173              -3.18201137e-02 -6.03588099e-02 -6.52976118e+02 -3.26309918e-02 -6.14028389e-02 -6.52612000e+02 8.10878136e-04 1.04402901e-03 -3.64117939e-01
174              -2.53850915e-02 -5.66991033e-02 -6.33675115e+02 -2.62274247e-02 -5.79691154e-02 -6.33343209e+02 8.42333278e-04 1.27001207e-03 -3.31905978e-01
175              -1.96519974e-02 -5.37381911e-02 -6.11026338e+02 -2.04990060e-02 -5.44693593e-02 -6.10746745e+02 8.47008552e-04 7.31168234e-04 -2.79593246e-01
176              -1.53554055e-02 -5.05531293e-02 -5.84080168e+02 -1.60597249e-02 -5.10553896e-02 -5.83864760e+02 7.04319450e-04 5.02260253e-04 -2.15408646e-01
177              -1.20056174e-02 -4.77621265e-02 -5.50858838e+02 -1.27488856e-02 -4.78879939e-02 -5.50683302e+02 7.43268220e-04 1.25867393e-04 -1.75536114e-01
178              -8.64981006e-03 -4.43881842e-02 -5.14698918e+02 -9.29703384e-03 -4.47866647e-02 -5.14546111e+02 6.47223785e-04 3.98480529e-04 -1.52807047e-01
179              -4.19663800e-03 -4.13600889e-02 -4.78957412e+02 -4.74758741e-03 -4.21132747e-02 -4.78824883e+02 5.50949409e-04 7.53185762e-04 -1.32528763e-01
180              2.60254877e-03 -3.92205967e-02 -4.45485462e+02 2.03132636e-03 -3.97964669e-02 -4.45367795e+02 5.71222410e-04 5.75870227e-04 -1.17667220e-01
181              1.06415764e-02 -3.73968266e-02 -4.15150265e+02 1.00516318e-02 -3.79745389e-02 -4.15033601e+02 5.89944608e-04 5.77712240e-04 -1.16664364e-01
182              1.93919802e-02 -3.62120378e-02 -3.87992204e+02 1.87028707e-02 -3.65277931e-02 -3.87848789e+02 6.89109537e-04 3.15755231e-04 -1.43415020e-01
183              2.75028057e-02 -3.52613277e-02 -3.63213790e+02 2.69149967e-02 -3.56230451e-02 -3.63022415e+02 5.87809007e-04 3.61717475e-04 -1.91374759e-01
184              3.43937002e-02 -3.49198789e-02 -3.39821728e+02 3.39105921e-02 -3.52257970e-02 -3.39583259e+02 4.83108173e-04 3.05918092e-04 -2.38469481e-01
185              3.83607806e-02 -3.49544113e-02 -3.16729932e+02 3.80693580e-02 -3.51794435e-02 -3.16464203e+02 2.91422570e-04 2.25032209e-04 -2.65728922e-01
186              3.92384398e-02 -3.52764239e-02 -2.91605525e+02 3.92285978e-02 -3.54033394e-02 -2.91342848e+02 9.84204097e-06 1.26915468e-04 -2.62677762e-01
187              3.70101791e-02 -3.57444322e-02 -2.62822807e+02 3.72922991e-02 -3.58056891e-02 -2.62597922e+02 -2.82119977e-04 6.12569296e-05 -2.24884792e-01
188              3.20638282e-02 -3.64238540e-02 -2.32005054e+02 3.25485373e-02 -3.64993856e-02 -2.31850870e+02 -4.84709099e-04 7.55316743e-05 -1.54183392e-01
189              2.48507385e-02 -3.69962067e-02 -1.99899211e+02 2.53752131e-02 -3.70620113e-02 -1.99840871e+02 -5.24474628e-04 6.58045481e-05 -5.83406194e-02