# Moment        
# CofR          : (0.00000000e+00 0.00000000e+00 0.00000000e+00)
#
# Time          	total_x total_y total_z	pressure_x pressure_y pressure_z	viscous_x viscous_y viscous_z
1                5.04167297e-01 2.06773216e+00 4.59218019e+01 5.04058470e-01 2.06382762e+00 4.59949594e+01 1.08827793e-04 3.90453558e-03 -7.31574692e-02
2                1.75761904e+00 8.72105793e+00 -2.05609703e+00 1.75748352e+00 8.71128587e+00 -1.87039461e+00 1.35520492e-04 9.77205916e-03 -1.85702418e-01
3                2.01762406e+00 1.07519886e+01 -1.99370205e+01 2.01742089e+00 1.07345743e+01 -1.96096982e+01 2.03177423e-04 1.74142781e-02 -3.27322348e-01
4                1.62771730e+00 8.65912143e+00 -1.81782200e+02 1.62752844e+00 8.63288368e+00 -1.81328375e+02 1.88863572e-04 2.62377433e-02 -4.53825189e-01
5                -9.77099510e-01 4.44746676e+00 -1.03866628e+02 -9.76895433e-01 4.41962847e+00 -1.03581838e+02 -2.04076663e-04 2.78382909e-02 -2.84790235e-01
6                -2.92378371e+00 2.68531814e-01 -9.37513345e+01 -2.92328580e+00 2.44885486e-01 -9.35720077e+01 -4.97908488e-04 2.36463276e-02 -1.79326775e-01
7                -3.69465774e+00 -2.64981229e+00 -2.46570794e+02 -3.69345695e+00 -2.66424610e+00 -2.46867605e+02 -1.20079017e-03 1.44338079e-02 2.96811113e-01
8                -4.06930186e+00 -3.86150444e+00 -3.47306471e+02 -4.06718540e+00 -3.86829850e+00 -3.48118468e+02 -2.11646293e-03 6.79405812e-03 8.11997546e-01
9                -3.98640012e+00 -3.53875738e+00 -3.73208388e+02 -3.98384941e+00 -3.53707959e+00 -3.74380193e+02 -2.55071328e-03 -1.67779159e-03 1.17180527e+00
10               -3.59371953e+00 -2.23936789e+00 -3.11741939e+02 -3.59130390e+00 -2.23474635e+00 -3.12909831e+02 -2.41563587e-03 -4.62154669e-03 1.16789170e+00
11               -2.73610109e+00 -5.48011775e-01 -2.75169649e+02 -2.73468679e+00 -5.46447466e-01 -2.75901082e+02 -1.41429952e-03 -1.56430885e-03 7.31432786e-01
12               -2.03700673e+00 9.24375783e-01 -2.44154192e+02 -2.03681546e+00 9.19241775e-01 -2.44247850e+02 -1.91272152e-04 5.13400890e-03 9.36574050e-02
13               -1.63838943e+00 1.82482972e+00 -2.00532817e+02 -1.63874255e+00 1.81385578e+00 -2.00256846e+02 3.53116665e-04 1.09739471e-02 -2.75971115e-01
14               -1.28957017e+00 2.05649362e+00 -1.81938696e+02 -1.29003906e+00 2.04173193e+00 -1.81576058e+02 4.68884053e-04 1.47616924e-02 -3.62638431e-01
15               -9.66487338e-01 1.75731603e+00 -2.11619298e+02 -9.66883419e-01 1.74076590e+00 -2.11329746e+02 3.96080716e-04 1.65501353e-02 -2.89551620e-01
16               -7.34519734e-01 1.17010048e+00 -2.81073088e+02 -7.34747343e-01 1.15455100e+00 -2.80965385e+02 2.27609237e-04 1.55494810e-02 -1.07703229e-01
17               -6.48504362e-01 5.29078308e-01 -3.34085137e+02 -6.48662539e-01 5.16098054e-01 -3.34093989e+02 1.58176598e-04 1.29802543e-02 8.85207460e-03
18               -6.35287601e-01 1.97263819e-02 -3.68359766e+02 -6.35337665e-01 1.16670927e-02 -3.68548404e+02 5.00639882e-05 8.05928915e-03 1.88638488e-01
19               -6.47338359e-01 -2.11408747e-01 -3.86745940e+02 -6.47187800e-01 -2.17126595e-01 -3.87078751e+02 -1.50558842e-04 5.71784731e-03 3.32810945e-01
20               -6.07159949e-01 -1.73051228e-01 -3.89214856e+02 -6.06519775e-01 -1.76076588e-01 -3.89898208e+02 -6.40173526e-04 3.02535990e-03 6.83351789e-01
21               -5.49322512e-01 3.36396448e-02 -3.73027739e+02 -5.48586012e-01 3.02117306e-02 -3.73780586e+02 -7.36499465e-04 3.42791427e-03 7.52847327e-01
22               -4.62998689e-01 3.67832855e-01 -3.44449089e+02 -4.62150113e-01 3.63573679e-01 -3.45315444e+02 -8.48575852e-04 4.25917608e-03 8.66354856e-01
23               -3.72054102e-01 6.72727459e-01 -3.27184736e+02 -3.71422048e-01 6.66358612e-01 -3.27991883e+02 -6.32054798e-04 6.36884769e-03 8.07147289e-01
24               -2.86204186e-01 8.59408229e-01 -3.31201344e+02 -2.85839164e-01 8.50851163e-01 -3.31934026e+02 -3.65021763e-04 8.55706600e-03 7.32681612e-01
25               -1.58795290e-01 9.70735032e-01 -3.46304732e+02 -1.58662517e-01 9.60208943e-01 -3.46966625e+02 -1.32772884e-04 1.05260892e-02 6.61893363e-01
26               6.64556148e-04 9.69100548e-01 -3.64538552e+02 6.73190452e-04 9.57457159e-01 -3.65183158e+02 -8.63430424e-06 1.16433891e-02 6.44606006e-01
27               1.56826157e-01 8.64279469e-01 -3.78519876e+02 1.56831724e-01 8.52254634e-01 -3.79201719e+02 -5.56618145e-06 1.20248344e-02 6.81843060e-01
28               2.62079302e-01 6.99793050e-01 -3.85268640e+02 2.62173477e-01 6.88085071e-01 -3.86031158e+02 -9.41745837e-05 1.17079787e-02 7.62517412e-01
29               3.72933557e-01 5.62070148e-01 -3.77855590e+02 3.73142232e-01 5.50918448e-01 -3.78713475e+02 -2.08674088e-04 1.11517004e-02 8.57884337e-01
30               4.60723656e-01 4.42425026e-01 -3.56375868e+02 4.61062757e-01 4.31992814e-01 -3.57349387e+02 -3.39101057e-04 1.04322120e-02 9.73519336e-01
31               5.33430218e-01 3.77183615e-01 -3.25049380e+02 5.33910253e-01 3.67165396e-01 -3.26121071e+02 -4.80035538e-04 1.00182196e-02 1.07169094e+00
32               5.73298548e-01 3.42102480e-01 -2.83465752e+02 5.73902825e-01 3.32298531e-01 -2.84625834e+02 -6.04277625e-04 9.80394914e-03 1.16008165e+00
33               6.04641096e-01 3.43063120e-01 -2.38277357e+02 6.05341509e-01 3.33188567e-01 -2.39508736e+02 -7.00412520e-04 9.87455303e-03 1.23137835e+00
34               6.28507195e-01 3.75559858e-01 -1.90855767e+02 6.29274231e-01 3.65400570e-01 -1.92143856e+02 -7.67036825e-04 1.01592874e-02 1.28808849e+00
35               6.55409543e-01 4.21813580e-01 -1.44896090e+02 6.56191754e-01 4.11212370e-01 -1.46214280e+02 -7.82211321e-04 1.06012098e-02 1.31818965e+00
36               6.80233265e-01 4.68039531e-01 -1.04930558e+02 6.81011067e-01 4.56922893e-01 -1.06267390e+02 -7.77802115e-04 1.11166380e-02 1.33683243e+00
37               7.41853568e-01 4.92701912e-01 -7.01654507e+01 7.42615932e-01 4.81008412e-01 -7.15122768e+01 -7.62364291e-04 1.16935001e-02 1.34682611e+00
38               8.20436717e-01 5.12751556e-01 -3.85394410e+01 8.21188915e-01 5.00559584e-01 -3.98936275e+01 -7.52197847e-04 1.21919726e-02 1.35418641e+00
39               9.14459126e-01 5.21204644e-01 -1.05905001e+01 9.15207980e-01 5.08535390e-01 -1.19491366e+01 -7.48854206e-04 1.26692540e-02 1.35863644e+00
40               1.01900809e+00 5.21390899e-01 1.47022015e+01 1.01975914e+00 5.08281460e-01 1.33421118e+01 -7.51056969e-04 1.31094390e-02 1.36008961e+00
41               1.14774660e+00 5.10171728e-01 4.06451911e+01 1.14851063e+00 4.96650927e-01 3.92800685e+01 -7.64027646e-04 1.35208015e-02 1.36512257e+00
42               1.29224958e+00 5.02434067e-01 6.81341087e+01 1.29302722e+00 4.88454168e-01 6.67631149e+01 -7.77643861e-04 1.39798987e-02 1.37099387e+00
43               1.44128239e+00 4.98854098e-01 9.61901183e+01 1.44206067e+00 4.84333438e-01 9.48236987e+01 -7.78278150e-04 1.45206604e-02 1.36641957e+00
44               1.61840661e+00 4.91385262e-01 1.25613266e+02 1.61918077e+00 4.76250246e-01 1.24259184e+02 -7.74165493e-04 1.51350157e-02 1.35408217e+00
45               1.81667354e+00 4.78642806e-01 1.54692466e+02 1.81743396e+00 4.62829661e-01 1.53355475e+02 -7.60421176e-04 1.58131455e-02 1.33699137e+00
46               2.00671099e+00 4.62529318e-01 1.79207096e+02 2.00744991e+00 4.45978760e-01 1.77901364e+02 -7.38923440e-04 1.65505581e-02 1.30573215e+00
47               2.18232666e+00 4.45329974e-01 1.97406115e+02 2.18303563e+00 4.28001536e-01 1.96136942e+02 -7.08961758e-04 1.73284384e-02 1.26917316e+00
48               2.35700366e+00 4.32873210e-01 2.09426697e+02 2.35766512e+00 4.14739449e-01 2.08197924e+02 -6.61465873e-04 1.81337608e-02 1.22877320e+00
49               2.47157167e+00 4.21312690e-01 2.15894548e+02 2.47218710e+00 4.02334700e-01 2.14713601e+02 -6.15427777e-04 1.89779894e-02 1.18094678e+00
50               2.69731439e+00 4.16425552e-01 2.17908530e+02 2.69789293e+00 3.96633477e-01 2.16774079e+02 -5.78543296e-04 1.97920753e-02 1.13445123e+00
51               2.83761685e+00 4.08604575e-01 2.19250584e+02 2.83814875e+00 3.87827150e-01 2.18177811e+02 -5.31900423e-04 2.07774247e-02 1.07277326e+00
52               3.00109433e+00 4.01981910e-01 2.15797065e+02 3.00158209e+00 3.80270493e-01 2.14786919e+02 -4.87764022e-04 2.17114166e-02 1.01014659e+00
53               3.18402196e+00 3.95119785e-01 2.06643347e+02 3.18446244e+00 3.72405564e-01 2.05702515e+02 -4.40480498e-04 2.27142213e-02 9.40832503e-01
54               3.37441859e+00 3.84652433e-01 1.91446302e+02 3.37481357e+00 3.60830314e-01 1.90582480e+02 -3.94976362e-04 2.38221190e-02 8.63822492e-01
55               3.64351609e+00 3.61148971e-01 1.63192597e+02 3.64384317e+00 3.36198950e-01 1.62418634e+02 -3.27079240e-04 2.49500208e-02 7.73962799e-01
56               3.79484154e+00 3.44303833e-01 1.40020274e+02 3.79505944e+00 3.18168647e-01 1.39352273e+02 -2.17894724e-04 2.61351859e-02 6.68000590e-01
57               4.00988079e+00 3.12663715e-01 1.01175179e+02 4.00998494e+00 2.85407767e-01 1.00620527e+02 -1.04150280e-04 2.72559473e-02 5.54652566e-01
58               4.15665488e+00 2.85215121e-01 5.99053679e+01 4.15665338e+00 2.56603658e-01 5.94809515e+01 1.50369874e-06 2.86114630e-02 4.24416387e-01
59               4.24993743e+00 2.60354884e-01 2.06004556e+01 4.24983993e+00 2.30538448e-01 2.02967221e+01 9.75022593e-05 2.98164359e-02 3.03733480e-01
60               4.30951044e+00 2.36543106e-01 -1.54896387e+01 4.30931963e+00 2.05708638e-01 -1.56770667e+01 1.90814327e-04 3.08344683e-02 1.87428041e-01
61               4.34571667e+00 2.13110080e-01 -4.81448098e+01 4.34543462e+00 1.81533047e-01 -4.82176558e+01 2.82049127e-04 3.15770335e-02 7.28460292e-02
62               4.35838247e+00 1.90747152e-01 -7.65421348e+01 4.35787220e+00 1.58413076e-01 -7.64060523e+01 5.10271619e-04 3.23340765e-02 -1.36082521e-01
63               4.33997191e+00 1.71410284e-01 -9.95479744e+01 4.33967111e+00 1.36636829e-01 -9.95035520e+01 3.00799550e-04 3.47734549e-02 -4.44223036e-02
64               4.28014115e+00 1.52660681e-01 -1.14726976e+02 4.27963153e+00 1.17827967e-01 -1.14483688e+02 5.09616760e-04 3.48327132e-02 -2.43287976e-01
65               4.17096334e+00 1.36801440e-01 -1.20795754e+02 4.17038295e+00 1.02565467e-01 -1.20442066e+02 5.80387281e-04 3.42359726e-02 -3.53687769e-01
66               4.01057767e+00 1.27809968e-01 -1.18175624e+02 4.01014945e+00 9.08109979e-02 -1.17875894e+02 4.28223200e-04 3.69989698e-02 -2.99729558e-01
67               3.80279826e+00 1.19100259e-01 -1.08539194e+02 3.80218474e+00 8.21596135e-02 -1.08057559e+02 6.13523610e-04 3.69406458e-02 -4.81634890e-01
68               3.55438959e+00 1.13125005e-01 -9.32448441e+01 3.55370528e+00 7.61515840e-02 -9.26623289e+01 6.84304104e-04 3.69734208e-02 -5.82515126e-01
69               3.27685891e+00 1.09881401e-01 -7.40685974e+01 3.27614783e+00 7.26071026e-02 -7.34186390e+01 7.11077058e-04 3.72742980e-02 -6.49958417e-01
70               2.98757669e+00 1.09841748e-01 -5.17245469e+01 2.98687460e+00 7.20486600e-02 -5.10352314e+01 7.02087052e-04 3.77930885e-02 -6.89315444e-01
71               2.70091103e+00 1.12383024e-01 -2.83689087e+01 2.70021482e+00 7.41400880e-02 -2.76402703e+01 6.96212245e-04 3.82429359e-02 -7.28638423e-01
72               2.42775610e+00 1.16458781e-01 -7.16627102e+00 2.42705004e+00 7.78618800e-02 -6.39230113e+00 7.06067933e-04 3.85969010e-02 -7.73969888e-01
73               2.17495029e+00 1.21139851e-01 9.78312809e+00 2.17422678e+00 8.22794606e-02 1.06031202e+01 7.23505857e-04 3.88603904e-02 -8.19992135e-01
74               1.94098994e+00 1.25703720e-01 2.17483992e+01 1.94024703e+00 8.66338034e-02 2.26102639e+01 7.42916500e-04 3.90699167e-02 -8.61864716e-01
75               1.72874582e+00 1.29814168e-01 2.94004964e+01 1.72798917e+00 9.05858690e-02 3.02959972e+01 7.56649422e-04 3.92282987e-02 -8.95500759e-01
76               1.53567631e+00 1.34554482e-01 3.50368054e+01 1.53491624e+00 9.52209790e-02 3.59551256e+01 7.60070050e-04 3.93335027e-02 -9.18320110e-01
77               1.35847298e+00 1.39380181e-01 3.91785334e+01 1.35771702e+00 1.00011382e-01 4.01096256e+01 7.55955337e-04 3.93687990e-02 -9.31092180e-01
78               1.19802086e+00 1.44135778e-01 4.21517802e+01 1.19728109e+00 1.04816601e-01 4.30840389e+01 7.39775022e-04 3.93191765e-02 -9.32258689e-01
79               1.04852397e+00 1.48420166e-01 4.41316474e+01 1.04780895e+00 1.09250702e-01 4.50519068e+01 7.15020601e-04 3.91694633e-02 -9.20259343e-01
80               9.00265485e-01 1.52103321e-01 4.52428994e+01 8.99578464e-01 1.13162454e-01 4.61446126e+01 6.87021119e-04 3.89408671e-02 -9.01713163e-01
81               7.45896436e-01 1.55479878e-01 4.54888277e+01 7.45230062e-01 1.16814697e-01 4.63720648e+01 6.66374560e-04 3.86651817e-02 -8.83237105e-01
82               5.99090729e-01 1.58470584e-01 4.34620928e+01 5.98439382e-01 1.20126741e-01 4.43273638e+01 6.51347586e-04 3.83438430e-02 -8.65270936e-01
83               4.60792985e-01 1.61167998e-01 3.91982493e+01 4.60152946e-01 1.23185303e-01 4.00451898e+01 6.40039275e-04 3.79826952e-02 -8.46940415e-01
84               3.30563821e-01 1.63686050e-01 3.26106748e+01 3.29933825e-01 1.26105142e-01 3.34373031e+01 6.29995348e-04 3.75809079e-02 -8.26628375e-01
85               2.08889408e-01 1.66090965e-01 2.39501695e+01 2.08267913e-01 1.28946676e-01 2.47551621e+01 6.21495226e-04 3.71442891e-02 -8.04992584e-01
86               9.29593582e-02 1.68470733e-01 1.36770769e+01 9.23457312e-02 1.31788221e-01 1.44597624e+01 6.13627018e-04 3.66825120e-02 -7.82685462e-01
87               -1.82338771e-02 1.70829054e-01 2.20973589e+00 -1.88398241e-02 1.34637332e-01 2.96983166e+00 6.05946968e-04 3.61917218e-02 -7.60095770e-01
88               -1.23354499e-01 1.73110274e-01 -1.00546650e+01 -1.23954098e-01 1.37433972e-01 -9.31716718e+00 5.99599322e-04 3.56763014e-02 -7.37497784e-01
89               -2.24077535e-01 1.75310272e-01 -2.28902998e+01 -2.24670868e-01 1.40169439e-01 -2.21730056e+01 5.93333073e-04 3.51408327e-02 -7.17294183e-01
90               -3.20356140e-01 1.77373861e-01 -3.62050332e+01 -3.20944284e-01 1.42786591e-01 -3.55058417e+01 5.88144505e-04 3.45872709e-02 -6.99191468e-01
91               -4.11858898e-01 1.79249929e-01 -4.99871148e+01 -4.12444878e-01 1.45235748e-01 -4.93049920e+01 5.85980386e-04 3.40141802e-02 -6.82122848e-01
92               -4.99710276e-01 1.80937781e-01 -6.42935223e+01 -5.00296073e-01 1.47517570e-01 -6.36265020e+01 5.85797409e-04 3.34202101e-02 -6.67020327e-01
93               -5.83444785e-01 1.82421486e-01 -7.91178229e+01 -5.84033281e-01 1.49613924e-01 -7.84649515e+01 5.88495533e-04 3.28075627e-02 -6.52871314e-01
94               -6.65322809e-01 1.83740675e-01 -9.45586871e+01 -6.65916619e-01 1.51573002e-01 -9.39190240e+01 5.93809832e-04 3.21676731e-02 -6.39663159e-01
95               -7.45584531e-01 1.84913634e-01 -1.10639761e+02 -7.46186030e-01 1.53402197e-01 -1.10012264e+02 6.01499182e-04 3.15114366e-02 -6.27496552e-01
96               -8.24456611e-01 1.85942963e-01 -1.27384935e+02 -8.25069339e-01 1.55092621e-01 -1.26769205e+02 6.12728749e-04 3.08503419e-02 -6.15729802e-01
97               -9.02054415e-01 1.86828284e-01 -1.44804866e+02 -9.02681020e-01 1.56644318e-01 -1.44199593e+02 6.26604766e-04 3.01839654e-02 -6.05273565e-01
98               -9.79251143e-01 1.87565653e-01 -1.62994320e+02 -9.79893529e-01 1.58061748e-01 -1.62398512e+02 6.42385778e-04 2.95039048e-02 -5.95807697e-01
99               -1.05378263e+00 1.88182297e-01 -1.81603122e+02 -1.05444199e+00 1.59371628e-01 -1.81015494e+02 6.59363707e-04 2.88106687e-02 -5.87627287e-01
100              -1.12644102e+00 1.88687555e-01 -2.00645991e+02 -1.12711622e+00 1.60566954e-01 -2.00061670e+02 6.75206556e-04 2.81206003e-02 -5.84321528e-01
