# vtk DataFile Version 3.0
Time Step 184, Physical Time = 0.001840s, Residual = 1.59e-03
ASCII
DATASET UNSTRUCTURED_GRID
POINTS 5000 float
0.318712 0.385257 0.000000
-0.318712 0.385257 0.000000
-0.318712 -0.385257 0.000000
0.318712 -0.385257 0.000000
0.093691 0.491144 0.000000
-0.093691 0.491144 0.000000
-0.093691 -0.491144 0.000000
0.093691 -0.491144 0.000000
0.404508 0.293893 0.000000
-0.404508 0.293893 0.000000
-0.404508 -0.293893 0.000000
0.404508 -0.293893 0.000000
0.438153 0.240877 0.000000
-0.438153 0.240877 0.000000
-0.438153 -0.240877 0.000000
0.438153 -0.240877 0.000000
0.500000 0.000000 0.000000
-0.500000 -0.000000 0.000000
0.364484 0.342274 0.000000
-0.364484 0.342274 0.000000
-0.364484 -0.342274 0.000000
0.364484 -0.342274 0.000000
0.496057 0.062667 0.000000
-0.496057 0.062667 0.000000
-0.496057 -0.062667 0.000000
0.496057 -0.062667 0.000000
0.212890 0.452414 0.000000
-0.212890 0.452414 0.000000
-0.212890 -0.452414 0.000000
0.212890 -0.452414 0.000000
0.154508 0.475528 0.000000
-0.154508 0.475528 0.000000
-0.154508 -0.475528 0.000000
0.154508 -0.475528 0.000000
0.267913 0.422164 0.000000
-0.267913 0.422164 0.000000
-0.267913 -0.422164 0.000000
0.267913 -0.422164 0.000000
0.031395 0.499013 0.000000
-0.031395 0.499013 0.000000
-0.031395 -0.499013 0.000000
0.031395 -0.499013 0.000000
0.464888 0.184062 0.000000
-0.464888 0.184062 0.000000
-0.464888 -0.184062 0.000000
0.464888 -0.184062 0.000000
0.484292 0.124345 0.000000
-0.484292 0.124345 0.000000
-0.484292 -0.124345 0.000000
0.484292 -0.124345 0.000000
-0.031454 0.499951 0.000000
0.438977 0.241329 0.000000
-0.268417 0.422957 0.000000
0.365169 0.342917 0.000000
-0.496990 -0.062784 0.000000
0.319311 -0.385981 0.000000
0.405269 0.294445 0.000000
-0.093867 0.492067 0.000000
0.500940 -0.000000 0.000000
-0.213290 0.453264 0.000000
-0.154799 0.476422 0.000000
0.031454 0.499951 0.000000
0.465762 0.184408 0.000000
0.319311 0.385981 0.000000
0.365169 -0.342917 0.000000
0.405269 -0.294445 0.000000
-0.365169 0.342917 0.000000
-0.319311 0.385981 0.000000
0.268417 0.422957 0.000000
0.213290 0.453264 0.000000
-0.319311 -0.385981 0.000000
0.154799 -0.476422 0.000000
-0.485202 -0.124579 0.000000
0.154799 0.476422 0.000000
0.268417 -0.422957 0.000000
0.093867 0.492067 0.000000
-0.031454 -0.499951 0.000000
-0.500940 0.000000 0.000000
0.438977 -0.241329 0.000000
-0.438977 -0.241329 0.000000
0.093867 -0.492067 0.000000
-0.485202 0.124579 0.000000
0.485202 0.124579 0.000000
-0.496990 0.062784 0.000000
0.213290 -0.453264 0.000000
0.031454 -0.499951 0.000000
0.496990 -0.062784 0.000000
0.465762 -0.184408 0.000000
-0.465762 -0.184408 0.000000
-0.213290 -0.453264 0.000000
-0.093867 -0.492067 0.000000
-0.405269 -0.294445 0.000000
0.496990 0.062784 0.000000
0.485202 -0.124579 0.000000
-0.154799 -0.476422 0.000000
-0.365169 -0.342917 0.000000
-0.465762 0.184408 0.000000
-0.438977 0.241329 0.000000
-0.405269 0.294445 0.000000
-0.268417 -0.422957 0.000000
-0.031523 0.501039 0.000000
0.439932 0.241854 0.000000
-0.269001 0.423877 0.000000
0.365964 0.343663 0.000000
-0.498071 -0.062921 0.000000
0.320005 -0.386820 0.000000
0.406150 0.295085 0.000000
-0.094071 0.493137 0.000000
0.502029 -0.000000 0.000000
-0.213754 0.454250 0.000000
-0.155136 0.477458 0.000000
0.031523 0.501039 0.000000
0.466775 0.184809 0.000000
0.365964 -0.343663 0.000000
0.406150 -0.295085 0.000000
0.320005 0.386820 0.000000
-0.365964 0.343663 0.000000
-0.320005 0.386820 0.000000
0.269001 0.423877 0.000000
0.213754 0.454250 0.000000
-0.320005 -0.386820 0.000000
0.155136 -0.477458 0.000000
-0.486257 -0.124850 0.000000
0.155136 0.477458 0.000000
0.269001 -0.423877 0.000000
0.094071 0.493137 0.000000
-0.031523 -0.501039 0.000000
-0.502029 0.000000 0.000000
0.439932 -0.241854 0.000000
-0.439932 -0.241854 0.000000
0.094071 -0.493137 0.000000
-0.486257 0.124850 0.000000
0.486257 0.124850 0.000000
-0.498071 0.062921 0.000000
0.213754 -0.454250 0.000000
0.031523 -0.501039 0.000000
0.466775 -0.184809 0.000000
0.498071 -0.062921 0.000000
-0.466775 -0.184809 0.000000
-0.213754 -0.454250 0.000000
-0.094071 -0.493137 0.000000
-0.406150 -0.295085 0.000000
0.498071 0.062921 0.000000
-0.155136 -0.477458 0.000000
0.486257 -0.124850 0.000000
-0.365964 -0.343663 0.000000
-0.466775 0.184809 0.000000
-0.439932 0.241854 0.000000
-0.406150 0.295085 0.000000
-0.269001 -0.423877 0.000000
-0.031604 0.502329 0.000000
0.441064 0.242477 0.000000
-0.269693 0.424969 0.000000
0.366906 0.344547 0.000000
-0.499353 -0.063083 0.000000
0.320829 -0.387816 0.000000
0.407196 0.295845 0.000000
-0.094313 0.494407 0.000000
0.503322 -0.000000 0.000000
-0.214304 0.455419 0.000000
-0.155535 0.478688 0.000000
0.031604 0.502329 0.000000
0.467977 0.185285 0.000000
0.366906 -0.344547 0.000000
0.407196 -0.295845 0.000000
0.320829 0.387816 0.000000
0.269693 0.424969 0.000000
-0.366906 0.344547 0.000000
-0.320829 0.387816 0.000000
0.214304 0.455419 0.000000
-0.320829 -0.387816 0.000000
0.155535 -0.478688 0.000000
-0.487509 -0.125171 0.000000
0.155535 0.478688 0.000000
0.269693 -0.424969 0.000000
-0.031604 -0.502329 0.000000
0.094313 0.494407 0.000000
-0.503322 0.000000 0.000000
0.441064 -0.242477 0.000000
-0.441064 -0.242477 0.000000
-0.487509 0.125171 0.000000
0.094313 -0.494407 0.000000
0.487509 0.125171 0.000000
-0.499353 0.063083 0.000000
0.214304 -0.455419 0.000000
0.031604 -0.502329 0.000000
0.467977 -0.185285 0.000000
0.499353 -0.063083 0.000000
-0.467977 -0.185285 0.000000
-0.214304 -0.455419 0.000000
-0.094313 -0.494407 0.000000
-0.407196 -0.295845 0.000000
0.499353 0.063083 0.000000
-0.155535 -0.478688 0.000000
0.487509 -0.125171 0.000000
-0.467977 0.185285 0.000000
-0.366906 -0.344547 0.000000
-0.441064 0.242477 0.000000
-0.407196 0.295845 0.000000
-0.269693 -0.424969 0.000000
-0.031700 0.503862 0.000000
0.442411 0.243217 0.000000
-0.270517 0.426266 0.000000
0.368026 0.345599 0.000000
-0.500877 -0.063276 0.000000
0.321809 -0.389000 0.000000
0.408439 0.296748 0.000000
-0.094601 0.495916 0.000000
0.504858 -0.000000 0.000000
-0.214958 0.456810 0.000000
-0.156010 0.480149 0.000000
0.031700 0.503862 0.000000
0.469405 0.185851 0.000000
0.368026 -0.345599 0.000000
0.408439 -0.296748 0.000000
0.321809 0.389000 0.000000
0.270517 0.426266 0.000000
-0.368026 0.345599 0.000000
-0.321809 0.389000 0.000000
0.214958 0.456810 0.000000
-0.321809 -0.389000 0.000000
0.156010 -0.480149 0.000000
0.270517 -0.426266 0.000000
-0.488997 -0.125553 0.000000
0.156010 0.480149 0.000000
-0.031700 -0.503862 0.000000
0.094601 0.495916 0.000000
-0.504858 0.000000 0.000000
0.442411 -0.243217 0.000000
-0.442411 -0.243217 0.000000
-0.488997 0.125553 0.000000
0.094601 -0.495916 0.000000
0.488997 0.125553 0.000000
-0.500877 0.063276 0.000000
0.214958 -0.456810 0.000000
0.031700 -0.503862 0.000000
0.469405 -0.185851 0.000000
0.500877 -0.063276 0.000000
-0.469405 -0.185851 0.000000
-0.214958 -0.456810 0.000000
-0.094601 -0.495916 0.000000
-0.408439 -0.296748 0.000000
-0.469405 0.185851 0.000000
0.500877 0.063276 0.000000
-0.156010 -0.480149 0.000000
0.488997 -0.125553 0.000000
-0.368026 -0.345599 0.000000
-0.442411 0.243217 0.000000
-0.408439 0.296748 0.000000
-0.270517 -0.426266 0.000000
-0.031815 0.505686 0.000000
0.444012 0.244098 0.000000
-0.271496 0.427809 0.000000
0.369358 0.346850 0.000000
-0.502691 -0.063505 0.000000
0.322974 -0.390408 0.000000
0.409918 0.297823 0.000000
-0.094943 0.497711 0.000000
0.506686 -0.000000 0.000000
-0.215736 0.458463 0.000000
-0.156575 0.481887 0.000000
0.031815 0.505686 0.000000
0.369358 -0.346850 0.000000
0.409918 -0.297823 0.000000
0.471105 0.186524 0.000000
0.322974 0.390408 0.000000
0.271496 0.427809 0.000000
-0.369358 0.346850 0.000000
-0.322974 0.390408 0.000000
0.215736 0.458463 0.000000
0.156575 -0.481887 0.000000
-0.322974 -0.390408 0.000000
0.271496 -0.427809 0.000000
-0.490768 -0.126008 0.000000
0.156575 0.481887 0.000000
-0.031815 -0.505686 0.000000
0.094943 0.497711 0.000000
-0.506686 0.000000 0.000000
0.444012 -0.244098 0.000000
-0.490768 0.126008 0.000000
-0.444012 -0.244098 0.000000
0.094943 -0.497711 0.000000
0.490768 0.126008 0.000000
-0.502691 0.063505 0.000000
0.215736 -0.458463 0.000000
0.031815 -0.505686 0.000000
0.471105 -0.186524 0.000000
-0.471105 -0.186524 0.000000
0.502691 -0.063505 0.000000
-0.215736 -0.458463 0.000000
-0.094943 -0.497711 0.000000
-0.409918 -0.297823 0.000000
-0.471105 0.186524 0.000000
0.502691 0.063505 0.000000
-0.156575 -0.481887 0.000000
0.490768 -0.126008 0.000000
-0.369358 -0.346850 0.000000
-0.444012 0.244098 0.000000
-0.409918 0.297823 0.000000
-0.271496 -0.427809 0.000000
-0.031952 0.507855 0.000000
0.445917 0.245145 0.000000
-0.272661 0.429644 0.000000
0.370943 0.348338 0.000000
-0.504847 -0.063777 0.000000
0.324359 -0.392083 0.000000
0.411676 0.299100 0.000000
-0.095351 0.499846 0.000000
0.508859 -0.000000 0.000000
-0.216662 0.460430 0.000000
-0.157246 0.483954 0.000000
0.031952 0.507855 0.000000
0.370943 -0.348338 0.000000
0.411676 -0.299100 0.000000
0.324359 0.392083 0.000000
0.473126 0.187324 0.000000
0.272661 0.429644 0.000000
-0.370943 0.348338 0.000000
-0.324359 0.392083 0.000000
0.216662 0.460430 0.000000
0.157246 -0.483954 0.000000
-0.324359 -0.392083 0.000000
0.272661 -0.429644 0.000000
0.157246 0.483954 0.000000
-0.492873 -0.126548 0.000000
-0.031952 -0.507855 0.000000
0.095351 0.499846 0.000000
0.445917 -0.245145 0.000000
-0.508859 0.000000 0.000000
-0.492873 0.126548 0.000000
-0.445917 -0.245145 0.000000
0.095351 -0.499846 0.000000
-0.504847 0.063777 0.000000
0.216662 -0.460430 0.000000
0.492873 0.126548 0.000000
0.031952 -0.507855 0.000000
0.473126 -0.187324 0.000000
-0.473126 -0.187324 0.000000
0.504847 -0.063777 0.000000
-0.216662 -0.460430 0.000000
-0.095351 -0.499846 0.000000
-0.473126 0.187324 0.000000
-0.411676 -0.299100 0.000000
-0.157246 -0.483954 0.000000
0.504847 0.063777 0.000000
0.492873 -0.126548 0.000000
-0.370943 -0.348338 0.000000
-0.445917 0.245145 0.000000
-0.411676 0.299100 0.000000
-0.272661 -0.429644 0.000000
0.318712 0.385257 0.100000
-0.318712 0.385257 0.100000
[...]
POINT_DATA 5000
SCALARS pressure float 1
LOOKUP_TABLE default
101812.388513
101812.388513
101812.388513
101812.388513
101812.388513
101812.388513
101812.388513
101812.388513
101812.388513
101812.388513
101812.388513
101812.388513
101812.388513
101812.388513
101812.388513
101812.388513
101325.000000
101325.000000
101325.000000
101325.000000
101325.000000
101325.000000
101325.000000
101325.000000
101325.000000
101325.000000
101325.000000
101325.000000
101325.000000
101325.000000
101325.000000
101325.000000
101325.000000
101325.000000
101325.000000
101325.000000
101325.000000
101325.000000
101325.000000
101325.000000
101325.000000
101325.000000
101325.000000
101325.000000
101325.000000
101325.000000
101325.000000
101325.000000
101325.000000
101325.000000
101323.544428
101324.660844
101323.958231
101324.315212
101324.977045
101324.132420
101324.495122
101323.589977
101325.000000
101323.803589
101323.678211
101323.544428
101324.801966
101324.132420
101324.315212
101324.495122
101324.315212
101324.132420
101323.958231
101323.803589
101324.132420
101323.678211
101324.909621
101323.678211
101323.958231
101323.589977
101323.544428
101325.000000
101324.660844
101324.660844
101323.589977
101324.909621
101324.909621
101324.977045
101323.803589
101323.544428
101324.977045
101324.801966
101324.801966
101323.803589
101323.589977
101324.495122
101324.977045
101324.909621
101323.678211
101324.315212
101324.801966
101324.660844
101324.495122
101323.958231
101321.866804
101324.269949
101322.757536
101323.525958
101324.950588
101323.132488
101323.913223
101321.964849
101325.000000
101322.424661
101322.154780
101321.866804
101324.573722
101323.525958
101323.913223
101323.132488
101323.525958
101323.132488
101322.757536
101322.424661
101323.132488
101322.154780
101324.805455
101322.154780
101322.757536
101321.964849
101321.866804
101325.000000
101324.269949
101324.269949
101321.964849
101324.805455
101324.805455
101324.950588
101322.424661
101321.866804
101324.573722
101324.950588
101324.573722
101322.424661
101321.964849
101323.913223
101324.950588
101322.154780
101324.805455
101323.525958
101324.573722
101324.269949
101323.913223
101322.757536
101319.890537
101323.809468
101321.343099
101322.596204
101324.919421
101321.954553
101323.227737
101320.050425
101325.000000
101320.800264
101320.360154
101319.890537
101324.304847
101322.596204
101323.227737
101321.954553
101321.343099
101322.596204
101321.954553
101320.800264
101321.954553
101320.360154
101324.682746
101320.360154
101321.343099
101319.890537
101320.050425
101325.000000
101323.809468
101323.809468
101324.682746
101320.050425
101324.682746
101324.919421
101320.800264
101319.890537
101324.304847
101324.919421
101324.304847
101320.800264
101320.050425
101323.227737
101324.919421
101320.360154
101324.682746
101324.304847
101322.596204
101323.809468
101323.227737
101321.343099
101317.561100
101323.266697
101319.675894
101321.500298
101324.882684
101320.566114
101322.419750
101317.793882
101325.000000
101318.885577
101318.244819
101317.561100
101323.987922
101321.500298
101322.419750
101320.566114
101319.675894
101321.500298
101320.566114
101318.885577
101320.566114
101318.244819
101319.675894
101324.538108
101318.244819
101317.561100
101317.793882
101325.000000
101323.266697
101323.266697
101324.538108
101317.793882
101324.538108
101324.882684
101318.885577
101317.561100
101323.987922
101324.882684
101323.987922
101318.885577
101317.793882
101322.419750
101323.987922
101324.882684
101318.244819
101324.538108
101321.500298
101323.266697
101322.419750
101319.675894
101314.817947
101322.627528
101317.712588
101320.209755
101324.839423
101318.931082
101321.468263
101315.136568
101325.000000
101316.630834
101315.753792
101314.817947
101320.209755
101321.468263
101323.614710
101318.931082
101317.712588
101320.209755
101318.931082
101316.630834
101315.753792
101318.931082
101317.712588
101324.367781
101315.753792
101314.817947
101315.136568
101325.000000
101322.627528
101324.367781
101322.627528
101315.136568
101324.367781
101324.839423
101316.630834
101314.817947
101323.614710
101323.614710
101324.839423
101316.630834
101315.136568
101321.468263
101323.614710
101324.839423
101315.753792
101324.367781
101320.209755
101322.627528
101321.468263
101317.712588
101311.594213
101321.876381
101315.405325
101318.693119
101324.788583
101317.009606
101320.350082
101312.013713
101325.000000
101313.981078
101312.826355
101311.594213
101318.693119
101320.350082
101317.009606
101323.176115
101315.405325
101318.693119
101317.009606
101313.981078
101312.826355
101317.009606
101315.405325
101312.826355
101324.167615
101311.594213
101312.013713
101321.876381
101325.000000
101324.167615
101321.876381
101312.013713
101324.788583
101313.981078
101324.167615
101311.594213
101323.176115
101323.176115
101324.788583
101313.981078
101312.013713
101323.176115
101320.350082
101312.826355
101324.788583
101324.167615
101318.693119
101321.876381
101320.350082
101315.405325
101812.388513
101812.388513
101812.388513
101812.388513
101812.388513
101812.388513
101812.388513
101812.388513
101812.388513
101812.388513
101812.388513
101812.388513
101812.388513
101812.388513
101812.388513
101812.388513
101325.000000
101325.000000
101325.000000
101325.000000
101325.000000
101325.000000
101325.000000
101325.000000
101325.000000
101325.000000
101325.000000
101325.000000
101325.000000
101325.000000
101325.000000
101325.000000
101325.000000
101325.000000
101325.000000
101325.000000
101325.000000
101325.000000
101325.000000
101325.000000
101325.000000
101325.000000
101325.000000
101325.000000
101325.000000
101325.000000
101325.000000
101325.000000
101325.000000
101325.000000
101323.544428
101324.660844
101323.589977
101324.495122
101324.495122
101323.678211
101324.315212
101323.678211
101323.958231
101323.803589
101323.958231
101324.132420
101324.660844
101323.544428
101324.977045
101323.678211
101324.315212
101324.801966
101324.909621
101323.803589
101324.132420
101323.589977
101324.132420
101323.958231
101324.909621
101324.660844
101325.000000
101323.803589
101324.909621
101323.589977
101323.803589
101324.801966
101324.801966
101325.000000
101324.977045
101324.315212
101323.544428
101323.544428
101324.132420
101324.977045
101324.660844
101324.801966
101324.495122
101324.977045
101323.678211
101323.589977
101323.958231
101324.909621
101324.315212
101324.495122
101307.816013
101320.996041
101316.915628
101312.701224
101324.728998
101314.757645
101319.039579
101308.353743
101325.000000
101310.875576
101309.395414
101307.816013
101316.915628
101319.039579
101314.757645
101322.662083
101312.701224
101310.875576
101316.915628
101314.757645
101309.395414
101314.757645
101312.701224
101309.395414
101323.933021
101307.816013
101308.353743
101320.996041
101325.000000
101323.933021
101320.996041
101308.353743
101310.875576
101324.728998
101323.933021
101307.816013
101322.662083
101322.662083
101324.728998
101310.875576
101322.662083
101308.353743
101319.039579
101309.395414
101324.728998
101323.933021
101316.915628
101320.996041
101319.039579
101312.701224
101321.866804
101324.269949
101321.964849
101323.913223
101323.913223
101323.525958
101322.154780
101322.154780
101322.757536
101322.424661
101322.757536
101323.132488
101324.269949
101321.866804
101324.950588
101322.154780
101323.525958
101324.573722
101324.805455
101322.424661
101323.132488
101321.964849
101323.132488
101322.757536
101324.805455
101324.269949
101322.424661
101325.000000
101324.805455
101321.964849
101322.424661
101324.573722
101324.573722
101324.950588
101325.000000
101323.525958
101321.866804
101321.866804
101323.132488
101324.950588
101324.269949
101324.573722
101323.913223
101324.950588
101322.154780
101321.964849
101322.757536
101324.805455
101323.525958
101323.913223
101319.890537
101323.809468
101320.050425
101323.227737
101323.227737
101322.596204
101320.360154
101320.360154
101321.343099
101320.800264
101321.343099
101321.954553
101323.809468
101324.919421
101319.890537
101320.360154
101322.596204
101324.682746
101324.304847
101320.800264
101321.954553
101320.050425
101321.954553
101321.343099
101324.682746
101323.809468
101320.800264
101325.000000
101324.682746
101320.050425
101320.800264
101324.304847
101324.304847
101324.919421
101325.000000
101322.596204
101319.890537
101319.890537
101321.954553
101324.919421
101323.809468
101324.304847
101323.227737
101324.919421
101320.360154
101320.050425
101321.343099
101324.682746
101322.596204
101323.227737
101303.398379
101319.966709
101314.837310
101309.539473
101324.659330
101312.124556
101317.507282
101304.074347
101325.000000
101307.244490
101305.383810
101303.398379
101317.507282
101314.837310
101312.124556
101322.061054
101309.539473
101307.244490
101314.837310
101312.124556
101305.383810
101309.539473
101312.124556
101305.383810
101323.658724
101303.398379
101319.966709
101304.074347
101325.000000
101323.658724
101319.966709
101304.074347
101307.244490
101324.659330
101323.658724
101303.398379
101322.061054
101322.061054
101324.659330
101307.244490
101322.061054
101304.074347
101317.507282
101305.383810
101324.659330
101319.966709
101323.658724
101314.837310
101309.539472
101317.507282
101317.561100
101323.266697
101317.793882
101322.419750
101322.419750
101321.500298
101318.244819
101318.244819
101319.675894
101319.675894
101318.885577
101320.566114
101323.266697
101324.882684
101317.561100
101318.244819
101321.500298
101324.538108
101323.987922
101318.885577
101320.566114
101317.793882
101320.566114
101319.675894
101324.538108
101323.266697
101318.885577
101325.000000
101324.538108
101317.793882
101318.885577
101323.987922
101323.987922
101324.882684
101325.000000
101321.500298
101317.561100
101317.561100
101320.566114
101324.882684
101323.266697
101323.987922
101322.419750
101324.882684
101318.244819
101317.793882
101319.675894
101324.538108
101321.500298
101322.419750
101314.817947
101322.627528
101321.468263
101315.136568
101321.468263
101320.209755
101315.753792
101315.753792
101317.712588
101317.712588
101316.630834
101318.931082
101322.627528
101324.839423
101315.753792
101314.817947
101320.209755
101324.367781
101316.630834
101323.614710
101318.931082
101315.136568
101317.712588
101318.931082
101324.367781
101322.627528
101316.630834
101325.000000
101315.136568
101324.367781
101316.630834
101323.614710
101323.614710
101324.839423
101325.000000
101320.209755
101314.817947
101314.817947
101318.931082
101324.839423
101322.627528
101323.614710
101321.468263
101315.753792
101315.136568
101324.839423
101317.712588
101324.367781
101320.209755
101321.468263
101298.242523
101318.765367
101312.411688
101305.849367
101324.578019
101309.051456
101315.718927
101299.079831
101325.000000
101303.006620
101300.701835
101298.242523
101315.718927
101312.411688
101309.051456
101305.849367
101321.359589
101303.006620
101312.411688
101309.051456
101300.701835
101305.849367
101309.051456
101300.701835
101323.338589
101298.242523
101318.765367
101299.079831
101325.000000
101323.338589
101299.079831
101318.765367
101303.006620
101324.578019
101323.338589
101298.242523
101321.359589
101321.359589
101321.359589
101303.006620
101324.578019
101299.079831
101300.701835
101315.718927
101324.578019
101318.765367
101323.338589
101312.411688
101305.849367
101315.718927
101311.594213
101321.876381
101320.350082
101312.013713
101320.350082
101318.693119
101312.826355
101312.826355
101315.405325
101315.405325
101313.981078
101317.009606
101321.876381
101324.788583
101312.826355
101311.594213
101318.693119
101324.167615
101313.981078
101323.176115
101317.009606
101315.405325
101312.013713
101317.009606
101324.167615
101321.876381
101313.981078
101325.000000
101312.013713
101324.167615
101313.981078
101323.176115
101323.176115
101324.788583
101325.000000
101318.693119
101311.594213
101311.594213
101317.009606
101323.176115
101321.876381
101324.788583
101320.350082
101312.826355
101312.013713
101315.405325
101324.788583
101324.167615
101318.693119
101320.350081
101307.816013
101320.996041
101319.039579
101319.039579
101316.915628
101308.353743
101309.395414
101309.395414
101312.701224
101312.701224
101310.875576
101314.757645
101320.996041
101324.728998
101309.395414
101307.816013
101316.915628
101323.933021
101310.875576
101322.662083
101314.757645
101312.701224
101308.353743
101323.933021
101320.996041
101314.757645
101310.875576
101308.353743
101325.000000
101310.875576
101323.933021
101322.662083
101322.662083
101324.728998
101325.000000
101307.816013
101316.915628
101307.816013
101314.757645
101322.662083
101320.996041
101324.728998
101319.039579
101309.395414
101308.353743
101312.701224
101324.728998
101323.933021
101316.915628
101319.039579
101292.261813
101317.371830
101309.598005
101301.568905
101324.483699
101305.486710
101313.644463
101293.286272
101325.000000
101298.090759
101295.270819
101292.261812
101313.644463
101309.598005
101305.486710
101301.568904
101298.090759
101320.545901
101295.270819
101309.598005
101305.486710
101301.568904
101295.270819
101305.486710
101322.967238
101317.371830
101292.261812
101293.286272
101325.000000
101322.967238
101293.286272
101317.371830
101298.090759
101324.483699
101322.967238
101292.261812
101320.545901
101320.545901
101320.545901
101298.090759
101324.483699
101293.286272
101295.270819
101313.644463
101317.371830
101324.483699
101322.967238
101309.598005
101301.568904
101313.644463
101303.398379
101319.966709
101317.507282
101317.507282
101314.837310
101305.383810
101304.074347
101305.383810
101309.539473
101309.539473
101312.124556
101307.244490
101319.966709
101305.383810
101324.659330
101303.398379
101314.837310
101323.658724
101307.244490
101322.061054
101312.124556
101309.539473
101304.074347
101319.966709
101323.658724
101312.124556
101307.244490
101304.074347
101307.244490
101325.000000
101323.658724
101322.061054
101322.061054
101324.659330
101325.000000
101303.398379
101303.398379
101314.837310
101322.061054
101312.124556
101319.966709
101324.659330
101317.507282
101305.383810
101304.074347
101309.539473
101323.658724
101324.659330
101314.837310
101317.507282
101285.357957
101315.763195
101306.350020
101296.627736
101324.374821
101301.371731
101311.249799
101286.598455
101325.000000
101289.001506
101292.416117
101285.357957
101311.249799
101306.350020
101301.371731
101296.627736
101292.416117
101319.606617
101289.001506
101296.627736
101306.350020
101301.371731
101289.001506
101322.538567
101315.763195
101301.371731
101285.357957
101286.598455
101322.538567
101325.000000
101286.598455
101315.763195
101292.416117
101324.374821
101285.357957
101322.538567
101319.606617
101319.606617
101319.606617
101292.416117
101286.598455
101324.374821
101289.001505
101311.249799
101315.763195
101324.374821
101322.538567
101306.350020
101296.627736
101311.249799
101298.242523
101318.765367
101315.718927
101315.718927
101312.411688
101300.701835
101299.079831
101300.701835
101305.849367
101305.849367
101309.051456
101303.006620
101318.765367
101300.701835
101324.578019
101312.411688
101323.338589
101298.242523
101303.006620
101321.359589
101309.051456
101305.849367
101318.765367
101299.079831
101323.338589
101303.006620
101309.051456
101303.006620
101299.079831
101325.000000
101323.338589
101321.359589
101321.359589
101324.578019
101325.000000
101298.242523
101298.242523
101312.411688
101321.359589
101309.051456
101318.765367
101324.578019
101300.701835
101315.718927
101299.079831
101305.849367
101323.338589
101324.578019
101312.411688
101315.718927
101292.261812
101317.371830
101313.644464
101295.270819
101309.598005
101313.644463
101293.286272
101295.270819
101301.568904
101301.568904
101305.486710
101317.371830
101298.090759
101295.270819
101324.483699
101309.598005
101322.967238
101292.261812
101298.090759
101305.486710
101301.568904
101320.545901
101317.371830
101293.286272
101322.967238
101298.090759
101298.090759
101305.486710
101293.286272
101325.000000
101322.967238
101320.545901
101320.545901
101324.483699
101292.261812
101292.261812
101325.000000
101320.545901
101309.598005
101305.486710
101317.371830
101324.483699
101295.270819
101301.568904
101293.286272
101313.644463
101322.967238
101324.483699
101309.598005
101313.644463
101277.426216
101313.915058
101302.618457
101290.950898
101296.644091
101324.249733
101308.498602
101278.914917
101325.000000
101281.798780
101285.896601
101308.498602
101277.426215
101302.618456
101296.644091
101285.896601
101290.950898
101318.527487
101281.798780
101290.950898
101281.798780
101302.618456
101313.915058
101296.644091
101322.046074
101277.426215
101296.644091
101278.914917
101322.046074
101325.000000
101278.914917
101313.915058
101285.896601
101324.249733
101277.426215
101322.046074
101318.527487
101318.527487
101318.527487
101285.896601
101278.914917
101281.798780
101324.249733
101313.915058
101308.498602
101324.249733
101322.046074
101290.950898
101302.618456
101308.498602
101285.357957
101315.763195
101311.249799
101289.001506
101306.350020
101311.249799
101286.598455
101289.001506
101296.627736
101296.627736
101301.371731
101315.763195
101289.001506
101292.416117
101324.374821
101322.538567
101306.350020
101292.416117
101285.357957
101296.627736
101301.371731
101315.763195
101319.606617
101292.416117
101322.538567
101292.416117
101286.598455
101301.371731
101286.598455
101319.606617
101319.606617
101325.000000
101322.538567
101324.374821
101285.357957
101285.357957
101319.606617
101325.000000
101306.350020
101315.763195
101301.371731
101324.374821
101289.001505
101296.627736
101286.598455
101311.249799
101322.538567
101324.374821
101306.350020
101311.249799
101268.341006
101311.798156
101298.344233
101284.448510
101291.228937
101324.106454
101305.347315
101270.114007
101325.000000
101305.347315
101298.344233
101273.548604
101278.428989
101268.341006
101278.428989
101291.228937
101284.448510
101273.548604
101284.448510
101317.291425
101311.798156
101273.548604
101321.481960
101298.344233
101291.228937
101268.341006
101291.228937
101321.481960
101270.114007
101325.000000
101270.114007
101311.798156
101278.428989
101324.106454
101317.291425
101268.341006
101317.291425
101321.481960
101278.428989
101317.291425
101270.114007
101273.548604
101324.106454
101311.798156
101305.347315
101324.106454
101284.448510
101321.481960
101298.344232
101305.347315
101277.426216
101313.915058
101308.498602
101281.798780
101302.618456
101308.498602
101278.914917
101290.950898
101281.798780
101296.644091
101290.950898
101313.915058
101281.798780
101322.046074
101324.249733
101302.618456
101285.896601
101285.896601
101277.426215
101290.950898
101296.644091
101285.896601
101313.915058
101285.896601
101322.046074
101318.527487
101278.914917
101278.914917
101296.644091
101318.527487
101318.527487
101322.046074
101325.000000
101324.249733
101318.527487
101277.426215
101277.426215
101325.000000
101313.915058
101302.618456
101296.644091
101281.798780
101324.249733
101290.950898
101278.914917
101308.498602
101322.046074
101324.249733
101302.618456
101308.498602
101258.052601
101309.400904
101293.503954
101277.084980
101285.096630
101323.944200
101301.778689
101260.147551
101325.000000
101301.778689
101293.503954
101269.972407
101285.096630
101277.084980
101264.205818
101258.052601
101269.972407
101264.205818
101277.084980
101309.400904
101264.205818
101315.891666
101320.843138
101258.052601
101293.503953
101285.096629
101285.096629
101320.843138
101260.147551
101325.000000
101260.147551
101309.400904
101269.972407
101315.891666
101323.944200
101258.052601
101269.972407
101315.891666
101320.843138
101315.891666
101264.205818
101260.147551
101309.400904
101323.944200
101301.778689
101277.084980
101323.944200
101320.843138
101293.503953
101301.778689
101268.341006
101305.347315
101311.798156
101273.548604
101298.344233
101305.347315
101270.114007
101284.448510
101291.228937
101273.548604
101311.798156
101284.448510
101273.548604
101321.481960
101298.344233
101324.106454
101278.428989
101278.428989
101268.341006
101278.428989
101284.448510
101291.228937
101311.798156
101278.428989