# vtk DataFile Version 3.0
Time Step 72, Physical Time = 0.000720s, Residual = 4.87e-03
ASCII
DATASET UNSTRUCTURED_GRID
POINTS 5000 float
0.318712 0.385257 0.000000
-0.318712 0.385257 0.000000
-0.318712 -0.385257 0.000000
0.318712 -0.385257 0.000000
0.093691 0.491144 0.000000
-0.093691 0.491144 0.000000
-0.093691 -0.491144 0.000000
0.093691 -0.491144 0.000000
0.404508 0.293893 0.000000
-0.404508 0.293893 0.000000
-0.404508 -0.293893 0.000000
0.404508 -0.293893 0.000000
0.438153 0.240877 0.000000
-0.438153 0.240877 0.000000
-0.438153 -0.240877 0.000000
0.438153 -0.240877 0.000000
0.500000 0.000000 0.000000
-0.500000 -0.000000 0.000000
0.364484 0.342274 0.000000
-0.364484 0.342274 0.000000
-0.364484 -0.342274 0.000000
0.364484 -0.342274 0.000000
0.496057 0.062667 0.000000
-0.496057 0.062667 0.000000
-0.496057 -0.062667 0.000000
0.496057 -0.062667 0.000000
0.212890 0.452414 0.000000
-0.212890 0.452414 0.000000
-0.212890 -0.452414 0.000000
0.212890 -0.452414 0.000000
0.154508 0.475528 0.000000
-0.154508 0.475528 0.000000
-0.154508 -0.475528 0.000000
0.154508 -0.475528 0.000000
0.267913 0.422164 0.000000
-0.267913 0.422164 0.000000
-0.267913 -0.422164 0.000000
0.267913 -0.422164 0.000000
0.031395 0.499013 0.000000
-0.031395 0.499013 0.000000
-0.031395 -0.499013 0.000000
0.031395 -0.499013 0.000000
0.464888 0.184062 0.000000
-0.464888 0.184062 0.000000
-0.464888 -0.184062 0.000000
0.464888 -0.184062 0.000000
0.484292 0.124345 0.000000
-0.484292 0.124345 0.000000
-0.484292 -0.124345 0.000000
0.484292 -0.124345 0.000000
-0.031454 0.499951 0.000000
0.438977 0.241329 0.000000
-0.268417 0.422957 0.000000
0.365169 0.342917 0.000000
-0.496990 -0.062784 0.000000
0.319311 -0.385981 0.000000
0.405269 0.294445 0.000000
-0.093867 0.492067 0.000000
0.500940 -0.000000 0.000000
-0.213290 0.453264 0.000000
-0.154799 0.476422 0.000000
0.031454 0.499951 0.000000
0.465762 0.184408 0.000000
0.319311 0.385981 0.000000
0.365169 -0.342917 0.000000
0.405269 -0.294445 0.000000
-0.365169 0.342917 0.000000
-0.319311 0.385981 0.000000
0.268417 0.422957 0.000000
0.213290 0.453264 0.000000
-0.319311 -0.385981 0.000000
0.154799 -0.476422 0.000000
-0.485202 -0.124579 0.000000
0.154799 0.476422 0.000000
0.268417 -0.422957 0.000000
0.093867 0.492067 0.000000
-0.031454 -0.499951 0.000000
-0.500940 0.000000 0.000000
0.438977 -0.241329 0.000000
-0.438977 -0.241329 0.000000
0.093867 -0.492067 0.000000
-0.485202 0.124579 0.000000
0.485202 0.124579 0.000000
-0.496990 0.062784 0.000000
0.213290 -0.453264 0.000000
0.031454 -0.499951 0.000000
0.496990 -0.062784 0.000000
0.465762 -0.184408 0.000000
-0.465762 -0.184408 0.000000
-0.213290 -0.453264 0.000000
-0.093867 -0.492067 0.000000
-0.405269 -0.294445 0.000000
0.496990 0.062784 0.000000
0.485202 -0.124579 0.000000
-0.154799 -0.476422 0.000000
-0.365169 -0.342917 0.000000
-0.465762 0.184408 0.000000
-0.438977 0.241329 0.000000
-0.405269 0.294445 0.000000
-0.268417 -0.422957 0.000000
-0.031523 0.501039 0.000000
0.439932 0.241854 0.000000
-0.269001 0.423877 0.000000
0.365964 0.343663 0.000000
-0.498071 -0.062921 0.000000
0.320005 -0.386820 0.000000
0.406150 0.295085 0.000000
-0.094071 0.493137 0.000000
0.502029 -0.000000 0.000000
-0.213754 0.454250 0.000000
-0.155136 0.477458 0.000000
0.031523 0.501039 0.000000
0.466775 0.184809 0.000000
0.365964 -0.343663 0.000000
0.406150 -0.295085 0.000000
0.320005 0.386820 0.000000
-0.365964 0.343663 0.000000
-0.320005 0.386820 0.000000
0.269001 0.423877 0.000000
0.213754 0.454250 0.000000
-0.320005 -0.386820 0.000000
0.155136 -0.477458 0.000000
-0.486257 -0.124850 0.000000
0.155136 0.477458 0.000000
0.269001 -0.423877 0.000000
0.094071 0.493137 0.000000
-0.031523 -0.501039 0.000000
-0.502029 0.000000 0.000000
0.439932 -0.241854 0.000000
-0.439932 -0.241854 0.000000
0.094071 -0.493137 0.000000
-0.486257 0.124850 0.000000
0.486257 0.124850 0.000000
-0.498071 0.062921 0.000000
0.213754 -0.454250 0.000000
0.031523 -0.501039 0.000000
0.466775 -0.184809 0.000000
0.498071 -0.062921 0.000000
-0.466775 -0.184809 0.000000
-0.213754 -0.454250 0.000000
-0.094071 -0.493137 0.000000
-0.406150 -0.295085 0.000000
0.498071 0.062921 0.000000
-0.155136 -0.477458 0.000000
0.486257 -0.124850 0.000000
-0.365964 -0.343663 0.000000
-0.466775 0.184809 0.000000
-0.439932 0.241854 0.000000
-0.406150 0.295085 0.000000
-0.269001 -0.423877 0.000000
-0.031604 0.502329 0.000000
0.441064 0.242477 0.000000
-0.269693 0.424969 0.000000
0.366906 0.344547 0.000000
-0.499353 -0.063083 0.000000
0.320829 -0.387816 0.000000
0.407196 0.295845 0.000000
-0.094313 0.494407 0.000000
0.503322 -0.000000 0.000000
-0.214304 0.455419 0.000000
-0.155535 0.478688 0.000000
0.031604 0.502329 0.000000
0.467977 0.185285 0.000000
0.366906 -0.344547 0.000000
0.407196 -0.295845 0.000000
0.320829 0.387816 0.000000
0.269693 0.424969 0.000000
-0.366906 0.344547 0.000000
-0.320829 0.387816 0.000000
0.214304 0.455419 0.000000
-0.320829 -0.387816 0.000000
0.155535 -0.478688 0.000000
-0.487509 -0.125171 0.000000
0.155535 0.478688 0.000000
0.269693 -0.424969 0.000000
-0.031604 -0.502329 0.000000
0.094313 0.494407 0.000000
-0.503322 0.000000 0.000000
0.441064 -0.242477 0.000000
-0.441064 -0.242477 0.000000
-0.487509 0.125171 0.000000
0.094313 -0.494407 0.000000
0.487509 0.125171 0.000000
-0.499353 0.063083 0.000000
0.214304 -0.455419 0.000000
0.031604 -0.502329 0.000000
0.467977 -0.185285 0.000000
0.499353 -0.063083 0.000000
-0.467977 -0.185285 0.000000
-0.214304 -0.455419 0.000000
-0.094313 -0.494407 0.000000
-0.407196 -0.295845 0.000000
0.499353 0.063083 0.000000
-0.155535 -0.478688 0.000000
0.487509 -0.125171 0.000000
-0.467977 0.185285 0.000000
-0.366906 -0.344547 0.000000
-0.441064 0.242477 0.000000
-0.407196 0.295845 0.000000
-0.269693 -0.424969 0.000000
-0.031700 0.503862 0.000000
0.442411 0.243217 0.000000
-0.270517 0.426266 0.000000
0.368026 0.345599 0.000000
-0.500877 -0.063276 0.000000
0.321809 -0.389000 0.000000
0.408439 0.296748 0.000000
-0.094601 0.495916 0.000000
0.504858 -0.000000 0.000000
-0.214958 0.456810 0.000000
-0.156010 0.480149 0.000000
0.031700 0.503862 0.000000
0.469405 0.185851 0.000000
0.368026 -0.345599 0.000000
0.408439 -0.296748 0.000000
0.321809 0.389000 0.000000
0.270517 0.426266 0.000000
-0.368026 0.345599 0.000000
-0.321809 0.389000 0.000000
0.214958 0.456810 0.000000
-0.321809 -0.389000 0.000000
0.156010 -0.480149 0.000000
0.270517 -0.426266 0.000000
-0.488997 -0.125553 0.000000
0.156010 0.480149 0.000000
-0.031700 -0.503862 0.000000
0.094601 0.495916 0.000000
-0.504858 0.000000 0.000000
0.442411 -0.243217 0.000000
-0.442411 -0.243217 0.000000
-0.488997 0.125553 0.000000
0.094601 -0.495916 0.000000
0.488997 0.125553 0.000000
-0.500877 0.063276 0.000000
0.214958 -0.456810 0.000000
0.031700 -0.503862 0.000000
0.469405 -0.185851 0.000000
0.500877 -0.063276 0.000000
-0.469405 -0.185851 0.000000
-0.214958 -0.456810 0.000000
-0.094601 -0.495916 0.000000
-0.408439 -0.296748 0.000000
-0.469405 0.185851 0.000000
0.500877 0.063276 0.000000
-0.156010 -0.480149 0.000000
0.488997 -0.125553 0.000000
-0.368026 -0.345599 0.000000
-0.442411 0.243217 0.000000
-0.408439 0.296748 0.000000
-0.270517 -0.426266 0.000000
-0.031815 0.505686 0.000000
0.444012 0.244098 0.000000
-0.271496 0.427809 0.000000
0.369358 0.346850 0.000000
-0.502691 -0.063505 0.000000
0.322974 -0.390408 0.000000
0.409918 0.297823 0.000000
-0.094943 0.497711 0.000000
0.506686 -0.000000 0.000000
-0.215736 0.458463 0.000000
-0.156575 0.481887 0.000000
0.031815 0.505686 0.000000
0.369358 -0.346850 0.000000
0.409918 -0.297823 0.000000
0.471105 0.186524 0.000000
0.322974 0.390408 0.000000
0.271496 0.427809 0.000000
-0.369358 0.346850 0.000000
-0.322974 0.390408 0.000000
0.215736 0.458463 0.000000
0.156575 -0.481887 0.000000
-0.322974 -0.390408 0.000000
0.271496 -0.427809 0.000000
-0.490768 -0.126008 0.000000
0.156575 0.481887 0.000000
-0.031815 -0.505686 0.000000
0.094943 0.497711 0.000000
-0.506686 0.000000 0.000000
0.444012 -0.244098 0.000000
-0.490768 0.126008 0.000000
-0.444012 -0.244098 0.000000
0.094943 -0.497711 0.000000
0.490768 0.126008 0.000000
-0.502691 0.063505 0.000000
0.215736 -0.458463 0.000000
0.031815 -0.505686 0.000000
0.471105 -0.186524 0.000000
-0.471105 -0.186524 0.000000
0.502691 -0.063505 0.000000
-0.215736 -0.458463 0.000000
-0.094943 -0.497711 0.000000
-0.409918 -0.297823 0.000000
-0.471105 0.186524 0.000000
0.502691 0.063505 0.000000
-0.156575 -0.481887 0.000000
0.490768 -0.126008 0.000000
-0.369358 -0.346850 0.000000
-0.444012 0.244098 0.000000
-0.409918 0.297823 0.000000
-0.271496 -0.427809 0.000000
-0.031952 0.507855 0.000000
0.445917 0.245145 0.000000
-0.272661 0.429644 0.000000
0.370943 0.348338 0.000000
-0.504847 -0.063777 0.000000
0.324359 -0.392083 0.000000
0.411676 0.299100 0.000000
-0.095351 0.499846 0.000000
0.508859 -0.000000 0.000000
-0.216662 0.460430 0.000000
-0.157246 0.483954 0.000000
0.031952 0.507855 0.000000
0.370943 -0.348338 0.000000
0.411676 -0.299100 0.000000
0.324359 0.392083 0.000000
0.473126 0.187324 0.000000
0.272661 0.429644 0.000000
-0.370943 0.348338 0.000000
-0.324359 0.392083 0.000000
0.216662 0.460430 0.000000
0.157246 -0.483954 0.000000
-0.324359 -0.392083 0.000000
0.272661 -0.429644 0.000000
0.157246 0.483954 0.000000
-0.492873 -0.126548 0.000000
-0.031952 -0.507855 0.000000
0.095351 0.499846 0.000000
0.445917 -0.245145 0.000000
-0.508859 0.000000 0.000000
-0.492873 0.126548 0.000000
-0.445917 -0.245145 0.000000
0.095351 -0.499846 0.000000
-0.504847 0.063777 0.000000
0.216662 -0.460430 0.000000
0.492873 0.126548 0.000000
0.031952 -0.507855 0.000000
0.473126 -0.187324 0.000000
-0.473126 -0.187324 0.000000
0.504847 -0.063777 0.000000
-0.216662 -0.460430 0.000000
-0.095351 -0.499846 0.000000
-0.473126 0.187324 0.000000
-0.411676 -0.299100 0.000000
-0.157246 -0.483954 0.000000
0.504847 0.063777 0.000000
0.492873 -0.126548 0.000000
-0.370943 -0.348338 0.000000
-0.445917 0.245145 0.000000
-0.411676 0.299100 0.000000
-0.272661 -0.429644 0.000000
0.318712 0.385257 0.100000
-0.318712 0.385257 0.100000
[...]
POINT_DATA 5000
SCALARS pressure float 1
LOOKUP_TABLE default
101706.536121
101706.536121
101706.536121
101706.536121
101706.536121
101706.536121
101706.536121
101706.536121
101706.536121
101706.536121
101706.536121
101706.536121
101706.536121
101706.536121
101706.536121
101706.536121
101325.000000
101325.000000
101325.000000
101325.000000
101325.000000
101325.000000
101325.000000
101325.000000
101325.000000
101325.000000
101325.000000
101325.000000
101325.000000
101325.000000
101325.000000
101325.000000
101325.000000
101325.000000
101325.000000
101325.000000
101325.000000
101325.000000
101325.000000
101325.000000
101325.000000
101325.000000
101325.000000
101325.000000
101325.000000
101325.000000
101325.000000
101325.000000
101325.000000
101325.000000
101323.860553
101324.734503
101324.184485
101324.463936
101324.982030
101324.320843
101324.604773
101323.896209
101325.000000
101324.063429
101323.965281
101323.860553
101324.844976
101324.320843
101324.463936
101324.604773
101324.463936
101324.320843
101324.184485
101324.063429
101324.320843
101323.965281
101324.929250
101323.965281
101324.184485
101323.896209
101323.860553
101325.000000
101324.734503
101324.734503
101323.896209
101324.929250
101324.929250
101324.982030
101324.063429
101323.860553
101324.982030
101324.844976
101324.844976
101324.063429
101323.896209
101324.604773
101324.982030
101324.929250
101323.965281
101324.463936
101324.844976
101324.734503
101324.604773
101324.184485
101322.547280
101324.428503
101323.244560
101323.846094
101324.961319
101323.538079
101324.149252
101322.624032
101325.000000
101322.983980
101322.772713
101322.547280
101324.666302
101323.846094
101324.149252
101323.538079
101323.846094
101323.538079
101323.244560
101322.983980
101323.538079
101322.772713
101324.847707
101322.772713
101323.244560
101322.624032
101322.547280
101325.000000
101324.428503
101324.428503
101322.624032
101324.847707
101324.847707
101324.961319
101322.983980
101322.547280
101324.666302
101324.961319
101324.666302
101322.983980
101322.624032
101324.149252
101324.961319
101322.772713
101324.847707
101323.846094
101324.666302
101324.428503
101324.149252
101323.244560
101321.000225
101324.068031
101322.137315
101323.118267
101324.936921
101322.615971
101323.612642
101321.125388
101325.000000
101321.712374
101321.367849
101321.000225
101324.455822
101323.118267
101323.612642
101322.615971
101322.137315
101323.118267
101322.615971
101321.712374
101322.615971
101321.367849
101324.751648
101321.367849
101322.137315
101321.000225
101321.125388
101325.000000
101324.068031
101324.068031
101324.751648
101321.125388
101324.751648
101324.936921
101321.712374
101321.000225
101324.455822
101324.936921
101324.455822
101321.712374
101321.125388
101323.612642
101324.936921
101321.367849
101324.751648
101324.455822
101323.118267
101324.068031
101323.612642
101322.137315
101319.176701
101323.643141
101320.832198
101322.260373
101324.908163
101321.529077
101322.980136
101319.358927
101325.000000
101320.213524
101319.711928
101319.176701
101324.207728
101322.260373
101322.980136
101321.529077
101320.832198
101322.260373
101321.529077
101320.213524
101321.529077
101319.711928
101320.832198
101324.638423
101319.711928
101319.176701
101319.358927
101325.000000
101323.643141
101323.643141
101324.638423
101319.358927
101324.638423
101324.908163
101320.213524
101319.176701
101324.207728
101324.908163
101324.207728
101320.213524
101319.358927
101322.980136
101324.207728
101324.908163
101319.711928
101324.638423
101322.260373
101323.643141
101322.980136
101320.832198
101317.029313
101323.142788
101319.295288
101321.250114
101324.874298
101320.249147
101322.235295
101317.278736
101325.000000
101318.448473
101317.761909
101317.029313
101321.250114
101322.235295
101323.915571
101320.249147
101319.295288
101321.250114
101320.249147
101318.448473
101317.761909
101320.249147
101319.295288
101324.505088
101317.761909
101317.029313
101317.278736
101325.000000
101323.142788
101324.505088
101323.142788
101317.278736
101324.505088
101324.874298
101318.448473
101317.029313
101323.915571
101323.915571
101324.874298
101318.448473
101317.278736
101322.235295
101323.915571
101324.874298
101317.761909
101324.505088
101321.250114
101323.142788
101322.235295
101319.295288
101314.505719
101322.554777
101317.489123
101320.062865
101324.834499
101318.744982
101321.359964
101314.834111
101325.000000
101316.374198
101315.470261
101314.505719
101320.062865
101321.359964
101318.744982
101323.572231
101317.489123
101320.062865
101318.744982
101316.374198
101315.470261
101318.744982
101317.489123
101315.470261
101324.348395
101314.505719
101314.834111
101322.554777
101325.000000
101324.348395
101322.554777
101314.834111
101324.834499
101316.374198
101324.348395
101314.505719
101323.572231
101323.572231
101324.834499
101316.374198
101314.834111
101323.572231
101321.359964
101315.470261
101324.834499
101324.348395
101320.062865
101322.554777
101321.359964
101317.489123
101706.536121
101706.536121
101706.536121
101706.536121
101706.536121
101706.536121
101706.536121
101706.536121
101706.536121
101706.536121
101706.536121
101706.536121
101706.536121
101706.536121
101706.536121
101706.536121
101325.000000
101325.000000
101325.000000
101325.000000
101325.000000
101325.000000
101325.000000
101325.000000
101325.000000
101325.000000
101325.000000
101325.000000
101325.000000
101325.000000
101325.000000
101325.000000
101325.000000
101325.000000
101325.000000
101325.000000
101325.000000
101325.000000
101325.000000
101325.000000
101325.000000
101325.000000
101325.000000
101325.000000
101325.000000
101325.000000
101325.000000
101325.000000
101325.000000
101325.000000
101323.860553
101324.734503
101323.896209
101324.604773
101324.604773
101323.965281
101324.463936
101323.965281
101324.184485
101324.063429
101324.184485
101324.320843
101324.734503
101323.860553
101324.982030
101323.965281
101324.463936
101324.844976
101324.929250
101324.063429
101324.320843
101323.896209
101324.320843
101324.184485
101324.929250
101324.734503
101325.000000
101324.063429
101324.929250
101323.896209
101324.063429
101324.844976
101324.844976
101325.000000
101324.982030
101324.463936
101323.860553
101323.860553
101324.320843
101324.982030
101324.734503
101324.844976
101324.604773
101324.982030
101323.965281
101323.896209
101324.184485
101324.929250
101324.463936
101324.604773
101311.548079
101321.865632
101318.671415
101315.372306
101324.787855
101316.982108
101320.334080
101311.969023
101325.000000
101313.943158
101312.784462
101311.548079
101318.671415
101320.334080
101316.982108
101323.169838
101315.372306
101313.943158
101318.671415
101316.982108
101312.784462
101316.982108
101315.372306
101312.784462
101324.164751
101311.548079
101311.969023
101321.865632
101325.000000
101324.164751
101321.865632
101311.969023
101313.943158
101324.787855
101324.164751
101311.548079
101323.169838
101323.169838
101324.787855
101313.943158
101323.169838
101311.969023
101320.334080
101312.784462
101324.787855
101324.164751
101318.671415
101321.865632
101320.334080
101315.372306
101322.547280
101324.428503
101322.624032
101324.149252
101324.149252
101323.846094
101322.772713
101322.772713
101323.244560
101322.983980
101323.244560
101323.538079
101324.428503
101322.547280
101324.961319
101322.772713
101323.846094
101324.666302
101324.847707
101322.983980
101323.538079
101322.624032
101323.538079
101323.244560
101324.847707
101324.428503
101322.983980
101325.000000
101324.847707
101322.624032
101322.983980
101324.666302
101324.666302
101324.961319
101325.000000
101323.846094
101322.547280
101322.547280
101323.538079
101324.961319
101324.428503
101324.666302
101324.149252
101324.961319
101322.772713
101322.624032
101323.244560
101324.847707
101323.846094
101324.149252
101321.000225
101324.068031
101321.125388
101323.612642
101323.612642
101323.118267
101321.367849
101321.367849
101322.137315
101321.712374
101322.137315
101322.615971
101324.068031
101324.936921
101321.000225
101321.367849
101323.118267
101324.751648
101324.455822
101321.712374
101322.615971
101321.125388
101322.615971
101322.137315
101324.751648
101324.068031
101321.712374
101325.000000
101324.751648
101321.125388
101321.712374
101324.455822
101324.455822
101324.936921
101325.000000
101323.118267
101321.000225
101321.000225
101322.615971
101324.936921
101324.068031
101324.455822
101323.612642
101324.936921
101321.367849
101321.125388
101322.137315
101324.751648
101323.118267
101323.612642
101308.089879
101321.059853
101317.044471
101312.897233
101324.733317
101314.920881
101319.134572
101308.619039
101325.000000
101311.100681
101309.644109
101308.089879
101319.134572
101317.044471
101314.920881
101322.699343
101312.897233
101311.100681
101317.044471
101314.920881
101309.644109
101312.897233
101314.920881
101309.644109
101323.950026
101308.089879
101321.059853
101308.619039
101325.000000
101323.950026
101321.059853
101308.619039
101311.100681
101324.733317
101323.950026
101308.089879
101322.699343
101322.699343
101324.733317
101311.100681
101322.699343
101308.619039
101319.134572
101309.644109
101324.733317
101321.059853
101323.950026
101317.044471
101312.897233
101319.134572
101319.176701
101323.643141
101319.358927
101322.980136
101322.980136
101322.260373
101319.711928
101319.711928
101320.832198
101320.832198
101320.213524
101321.529077
101323.643141
101324.908163
101319.176701
101319.711928
101322.260373
101324.638423
101324.207728
101320.213524
101321.529077
101319.358927
101321.529077
101320.832198
101324.638423
101323.643141
101320.213524
101325.000000
101324.638423
101319.358927
101320.213524
101324.207728
101324.207728
101324.908163
101325.000000
101322.260373
101319.176701
101319.176701
101321.529077
101324.908163
101323.643141
101324.207728
101322.980136
101324.908163
101319.711928
101319.358927
101320.832198
101324.638423
101322.260373
101322.980136
101317.029313
101323.142788
101322.235295
101317.278736
101322.235295
101321.250114
101317.761909
101317.761909
101319.295288
101319.295288
101318.448473
101320.249147
101323.142788
101324.874298
101317.761909
101317.029313
101321.250114
101324.505088
101318.448473
101323.915571
101320.249147
101317.278736
101319.295288
101320.249147
101324.505088
101323.142788
101318.448473
101325.000000
101317.278736
101324.505088
101318.448473
101323.915571
101323.915571
101324.874298
101325.000000
101321.250114
101317.029313
101317.029313
101320.249147
101324.874298
101323.142788
101323.915571
101322.235295
101317.761909
101317.278736
101324.874298
101319.295288
101324.505088
101321.250114
101322.235295
101304.053786
101320.119422
101315.145653
101310.008555
101324.669666
101312.515205
101317.734616
101304.709245
101325.000000
101307.783204
101305.978978
101304.053786
101317.734616
101315.145653
101312.515205
101310.008555
101322.150224
101307.783204
101315.145653
101312.515205
101305.978978
101310.008555
101312.515205
101305.978978
101323.699419
101304.053786
101320.119422
101304.709245
101325.000000
101323.699419
101304.709245
101320.119422
101307.783204
101324.669666
101323.699419
101304.053786
101322.150224
101322.150224
101322.150224
101307.783204
101324.669666
101304.709245
101305.978978
101317.734616
101324.669666
101320.119422
101323.699419
101315.145653
101310.008555
101317.734616
101314.505719
101322.554777
101321.359964
101314.834111
101321.359964
101320.062865
101315.470261
101315.470261
101317.489123
101317.489123
101316.374198
101318.744982
101322.554777
101324.834499
101315.470261
101314.505719
101320.062865
101324.348395
101316.374198
101323.572231
101318.744982
101317.489123
101314.834111
101318.744982
101324.348395
101322.554777
101316.374198
101325.000000
101314.834111
101324.348395
101316.374198
101323.572231
101323.572231
101324.834499
101325.000000
101320.062865
101314.505719
101314.505719
101318.744982
101323.572231
101322.554777
101324.834499
101321.359964
101315.470261
101314.834111
101317.489123
101324.834499
101324.348395
101320.062865
101321.359964
101311.548079
101321.865632
101320.334080
101320.334080
101318.671415
101311.969023
101312.784462
101312.784462
101315.372306
101315.372306
101313.943158
101316.982108
101321.865632
101324.787855
101312.784462
101311.548079
101318.671415
101324.164751
101313.943158
101323.169838
101316.982108
101315.372306
101311.969023
101324.164751
101321.865632
101316.982108
101313.943158
101311.969023
101325.000000
101313.943158
101324.164751
101323.169838
101323.169838
101324.787855
101325.000000
101311.548079
101318.671415
101311.548079
101316.982108
101323.169838
101321.865632
101324.787855
101320.334080
101312.784462
101311.969023
101315.372306
101324.787855
101324.164751
101318.671415
101320.334080
101299.371983
101319.028537
101312.943053
101306.657735
101324.595831
101309.724660
101316.110690
101300.173947
101325.000000
101303.934983
101301.727486
101299.371983
101316.110690
101312.943053
101309.724660
101306.657735
101303.934983
101321.513255
101301.727485
101312.943053
101309.724660
101306.657735
101301.727485
101309.724660
101323.408719
101319.028537
101299.371983
101300.173947
101325.000000
101323.408719
101300.173947
101319.028537
101303.934983
101324.595831
101323.408719
101299.371983
101321.513255
101321.513255
101321.513255
101303.934983
101324.595831
101300.173947
101301.727485
101316.110690
101319.028537
101324.595831
101323.408719
101312.943053
101306.657735
101316.110690
101308.089879
101321.059853
101319.134572
101319.134572
101317.044471
101309.644109
101308.619039
101309.644109
101312.897233
101312.897233
101314.920881
101311.100681
101321.059853
101309.644109
101324.733317
101308.089879
101317.044471
101323.950026
101311.100681
101322.699343
101314.920881
101312.897233
101308.619039
101321.059853
101323.950026
101314.920881
101311.100681
101308.619039
101311.100681
101325.000000
101323.950026
101322.699343
101322.699343
101324.733317
101325.000000
101308.089879
101308.089879
101317.044471
101322.699343
101314.920881
101321.059853
101324.733317
101319.134572
101309.644109
101308.619039
101312.897233
101323.950026
101324.733317
101317.044471
101319.134572
101293.967526
101317.769270
101310.400475
101302.789703
101324.510599
101306.503384
101314.236106
101294.938609
101325.000000
101296.819759
101299.492775
101293.967526
101314.236106
101310.400475
101306.503384
101302.789703
101299.492775
101320.777967
101296.819759
101302.789703
101310.400475
101306.503384
101296.819759
101323.073148
101317.769270
101306.503384
101293.967526
101294.938609
101323.073148
101325.000000
101294.938609
101317.769270
101299.492775
101324.510599
101293.967526
101323.073148
101320.777967
101320.777967
101320.777967
101299.492775
101294.938609
101324.510599
101296.819759
101314.236106
101317.769270
101324.510599
101323.073148
101310.400475
101302.789703
101314.236106
101304.053786
101320.119422
101317.734616
101317.734616
101315.145653
101305.978978
101304.709245
101305.978978
101310.008555
101310.008555
101312.515205
101307.783204
101320.119422
101305.978978
101324.669666
101315.145653
101323.699419
101304.053786
101307.783204
101322.150224
101312.515205
101310.008555
101320.119422
101304.709245
101323.699419
101307.783204
101312.515205
101307.783204
101304.709245
101325.000000
101323.699419
101322.150224
101322.150224
101324.669666
101325.000000
101304.053786
101304.053786
101315.145653
101322.150224
101312.515205
101320.119422
101324.669666
101305.978978
101317.734616
101304.709245
101310.008555
101323.699419
101324.669666
101315.145653
101317.734616
101299.371983
101319.028537
101316.110690
101301.727486
101312.943053
101316.110690
101300.173947
101301.727486
101306.657735
101306.657735
101309.724660
101319.028537
101303.934983
101301.727486
101324.595831
101312.943053
101323.408719
101299.371983
101303.934983
101309.724660
101306.657735
101321.513255
101319.028537
101300.173947
101323.408719
101303.934983
101303.934983
101309.724660
101300.173947
101325.000000
101323.408719
101321.513255
101321.513255
101324.595831
101299.371983
101299.371983
101325.000000
101321.513255
101312.943053
101309.724660
101319.028537
101324.595831
101301.727485
101306.657735
101300.173947
101316.110690
101323.408719
101324.595831
101312.943053
101316.110690
101287.758422
101316.322516
101307.479342
101298.345777
101302.802506
101324.412678
101312.082422
101288.923804
101325.000000
101291.181341
101294.389186
101312.082422
101287.758422
101307.479342
101302.802506
101294.389186
101298.345777
101319.933205
101291.181341
101298.345777
101291.181341
101307.479342
101316.322516
101302.802506
101322.687616
101287.758422
101302.802506
101288.923804
101322.687616
101325.000000
101288.923804
101316.322516
101294.389186
101324.412678
101287.758422
101322.687616
101319.933205
101319.933205
101319.933205
101294.389186
101288.923804
101291.181341
101324.412678
101316.322516
101312.082422
101324.412678
101322.687616
101298.345776
101307.479342
101312.082422
101293.967526
101317.769270
101314.236106
101296.819759
101310.400475
101314.236106
101294.938609
101296.819759
101302.789703
101302.789703
101306.503384
101317.769270
101296.819759
101299.492775
101324.510599
101323.073148
101310.400475
101299.492775
101293.967526
101302.789703
101306.503384
101317.769270
101320.777967
101299.492775
101323.073148
101299.492775
101294.938609
101306.503384
101294.938609
101320.777967
101320.777967
101325.000000
101323.073148
101324.510599
101293.967526
101293.967526
101320.777967
101325.000000
101310.400475
101317.769270
101306.503384
101324.510599
101296.819759
101302.789703
101294.938609
101314.236106
101323.073148
101324.510599
101310.400475
101314.236106
101280.646364
101314.665370
101304.133406
101293.255595
101298.563431
101324.300517
101309.615540
101282.034299
101325.000000
101309.615540
101304.133406
101284.722961
101288.543411
101280.646364
101288.543411
101298.563431
101293.255595
101284.722961
101293.255595
101318.965595
101314.665369
101284.722961
101322.246018
101304.133406
101298.563431
101280.646364
101298.563430
101322.246018
101282.034299
101325.000000
101282.034299
101314.665369
101288.543411
101324.300517
101318.965595
101280.646364
101318.965595
101322.246018
101288.543411
101318.965595
101282.034299
101284.722961
101324.300517
101314.665369
101309.615540
101324.300517
101293.255595
101322.246018
101304.133406
101309.615540
101287.758422
101316.322516
101312.082422
101291.181341
101307.479342
101312.082422
101288.923804
101298.345777
101291.181341
101302.802506
101298.345777
101316.322516
101291.181341
101322.687616
101324.412678
101307.479342
101294.389186
101294.389186
101287.758422
101298.345777
101302.802506
101294.389186
101316.322516
101294.389186
101322.687616
101319.933205
101288.923804
101288.923804
101302.802506
101319.933205
101319.933205
101322.687616
101325.000000
101324.412678
101319.933205
101287.758422
101287.758422
101325.000000
101316.322516
101307.479342
101302.802506
101291.181341
101324.412678
101298.345776
101288.923804
101312.082422
101322.687616
101324.412678
101307.479342
101312.082422
101272.592423
101312.788759
101300.344352
101287.491297
101293.762955
101324.173501
101306.821958
101274.232386
101325.000000
101306.821958
101300.344352
101281.923452
101293.762954
101287.491297
101277.409268
101272.592423
101281.923452
101277.409268
101287.491297
101312.788759
101277.409268
101317.869840
101321.745937
101272.592423
101300.344352
101293.762954
101293.762954
101321.745937
101274.232386
101325.000000
101274.232386
101312.788759
101281.923452
101317.869839
101324.173501
101272.592423
101281.923452
101317.869839
101321.745937
101317.869840
101277.409268
101274.232386
101312.788759
101324.173501
101306.821958
101287.491297
101324.173501
101321.745937
101300.344352
101306.821958
101280.646364
101309.615540
101314.665369
101284.722961
101304.133406
101309.615540
101282.034299
101293.255595
101298.563431
101284.722961
101314.665369
101293.255595
101284.722961
101322.246018
101304.133406
101324.300517
101288.543411
101288.543411
101280.646364
101288.543411
101293.255595
101298.563431
101314.665369
101288.543411