# vtk DataFile Version 3.0
Time Step 36, Physical Time = 0.000360s, Residual = 6.98e-03
ASCII
DATASET UNSTRUCTURED_GRID
POINTS 5000 float
0.318712 0.385257 0.000000
-0.318712 0.385257 0.000000
-0.318712 -0.385257 0.000000
0.318712 -0.385257 0.000000
0.093691 0.491144 0.000000
-0.093691 0.491144 0.000000
-0.093691 -0.491144 0.000000
0.093691 -0.491144 0.000000
0.404508 0.293893 0.000000
-0.404508 0.293893 0.000000
-0.404508 -0.293893 0.000000
0.404508 -0.293893 0.000000
0.438153 0.240877 0.000000
-0.438153 0.240877 0.000000
-0.438153 -0.240877 0.000000
0.438153 -0.240877 0.000000
0.500000 0.000000 0.000000
-0.500000 -0.000000 0.000000
0.364484 0.342274 0.000000
-0.364484 0.342274 0.000000
-0.364484 -0.342274 0.000000
0.364484 -0.342274 0.000000
0.496057 0.062667 0.000000
-0.496057 0.062667 0.000000
-0.496057 -0.062667 0.000000
0.496057 -0.062667 0.000000
0.212890 0.452414 0.000000
-0.212890 0.452414 0.000000
-0.212890 -0.452414 0.000000
0.212890 -0.452414 0.000000
0.154508 0.475528 0.000000
-0.154508 0.475528 0.000000
-0.154508 -0.475528 0.000000
0.154508 -0.475528 0.000000
0.267913 0.422164 0.000000
-0.267913 0.422164 0.000000
-0.267913 -0.422164 0.000000
0.267913 -0.422164 0.000000
0.031395 0.499013 0.000000
-0.031395 0.499013 0.000000
-0.031395 -0.499013 0.000000
0.031395 -0.499013 0.000000
0.464888 0.184062 0.000000
-0.464888 0.184062 0.000000
-0.464888 -0.184062 0.000000
0.464888 -0.184062 0.000000
0.484292 0.124345 0.000000
-0.484292 0.124345 0.000000
-0.484292 -0.124345 0.000000
0.484292 -0.124345 0.000000
-0.031454 0.499951 0.000000
0.438977 0.241329 0.000000
-0.268417 0.422957 0.000000
0.365169 0.342917 0.000000
-0.496990 -0.062784 0.000000
0.319311 -0.385981 0.000000
0.405269 0.294445 0.000000
-0.093867 0.492067 0.000000
0.500940 -0.000000 0.000000
-0.213290 0.453264 0.000000
-0.154799 0.476422 0.000000
0.031454 0.499951 0.000000
0.465762 0.184408 0.000000
0.319311 0.385981 0.000000
0.365169 -0.342917 0.000000
0.405269 -0.294445 0.000000
-0.365169 0.342917 0.000000
-0.319311 0.385981 0.000000
0.268417 0.422957 0.000000
0.213290 0.453264 0.000000
-0.319311 -0.385981 0.000000
0.154799 -0.476422 0.000000
-0.485202 -0.124579 0.000000
0.154799 0.476422 0.000000
0.268417 -0.422957 0.000000
0.093867 0.492067 0.000000
-0.031454 -0.499951 0.000000
-0.500940 0.000000 0.000000
0.438977 -0.241329 0.000000
-0.438977 -0.241329 0.000000
0.093867 -0.492067 0.000000
-0.485202 0.124579 0.000000
0.485202 0.124579 0.000000
-0.496990 0.062784 0.000000
0.213290 -0.453264 0.000000
0.031454 -0.499951 0.000000
0.496990 -0.062784 0.000000
0.465762 -0.184408 0.000000
-0.465762 -0.184408 0.000000
-0.213290 -0.453264 0.000000
-0.093867 -0.492067 0.000000
-0.405269 -0.294445 0.000000
0.496990 0.062784 0.000000
0.485202 -0.124579 0.000000
-0.154799 -0.476422 0.000000
-0.365169 -0.342917 0.000000
-0.465762 0.184408 0.000000
-0.438977 0.241329 0.000000
-0.405269 0.294445 0.000000
-0.268417 -0.422957 0.000000
-0.031523 0.501039 0.000000
0.439932 0.241854 0.000000
-0.269001 0.423877 0.000000
0.365964 0.343663 0.000000
-0.498071 -0.062921 0.000000
0.320005 -0.386820 0.000000
0.406150 0.295085 0.000000
-0.094071 0.493137 0.000000
0.502029 -0.000000 0.000000
-0.213754 0.454250 0.000000
-0.155136 0.477458 0.000000
0.031523 0.501039 0.000000
0.466775 0.184809 0.000000
0.365964 -0.343663 0.000000
0.406150 -0.295085 0.000000
0.320005 0.386820 0.000000
-0.365964 0.343663 0.000000
-0.320005 0.386820 0.000000
0.269001 0.423877 0.000000
0.213754 0.454250 0.000000
-0.320005 -0.386820 0.000000
0.155136 -0.477458 0.000000
-0.486257 -0.124850 0.000000
0.155136 0.477458 0.000000
0.269001 -0.423877 0.000000
0.094071 0.493137 0.000000
-0.031523 -0.501039 0.000000
-0.502029 0.000000 0.000000
0.439932 -0.241854 0.000000
-0.439932 -0.241854 0.000000
0.094071 -0.493137 0.000000
-0.486257 0.124850 0.000000
0.486257 0.124850 0.000000
-0.498071 0.062921 0.000000
0.213754 -0.454250 0.000000
0.031523 -0.501039 0.000000
0.466775 -0.184809 0.000000
0.498071 -0.062921 0.000000
-0.466775 -0.184809 0.000000
-0.213754 -0.454250 0.000000
-0.094071 -0.493137 0.000000
-0.406150 -0.295085 0.000000
0.498071 0.062921 0.000000
-0.155136 -0.477458 0.000000
0.486257 -0.124850 0.000000
-0.365964 -0.343663 0.000000
-0.466775 0.184809 0.000000
-0.439932 0.241854 0.000000
-0.406150 0.295085 0.000000
-0.269001 -0.423877 0.000000
-0.031604 0.502329 0.000000
0.441064 0.242477 0.000000
-0.269693 0.424969 0.000000
0.366906 0.344547 0.000000
-0.499353 -0.063083 0.000000
0.320829 -0.387816 0.000000
0.407196 0.295845 0.000000
-0.094313 0.494407 0.000000
0.503322 -0.000000 0.000000
-0.214304 0.455419 0.000000
-0.155535 0.478688 0.000000
0.031604 0.502329 0.000000
0.467977 0.185285 0.000000
0.366906 -0.344547 0.000000
0.407196 -0.295845 0.000000
0.320829 0.387816 0.000000
0.269693 0.424969 0.000000
-0.366906 0.344547 0.000000
-0.320829 0.387816 0.000000
0.214304 0.455419 0.000000
-0.320829 -0.387816 0.000000
0.155535 -0.478688 0.000000
-0.487509 -0.125171 0.000000
0.155535 0.478688 0.000000
0.269693 -0.424969 0.000000
-0.031604 -0.502329 0.000000
0.094313 0.494407 0.000000
-0.503322 0.000000 0.000000
0.441064 -0.242477 0.000000
-0.441064 -0.242477 0.000000
-0.487509 0.125171 0.000000
0.094313 -0.494407 0.000000
0.487509 0.125171 0.000000
-0.499353 0.063083 0.000000
0.214304 -0.455419 0.000000
0.031604 -0.502329 0.000000
0.467977 -0.185285 0.000000
0.499353 -0.063083 0.000000
-0.467977 -0.185285 0.000000
-0.214304 -0.455419 0.000000
-0.094313 -0.494407 0.000000
-0.407196 -0.295845 0.000000
0.499353 0.063083 0.000000
-0.155535 -0.478688 0.000000
0.487509 -0.125171 0.000000
-0.467977 0.185285 0.000000
-0.366906 -0.344547 0.000000
-0.441064 0.242477 0.000000
-0.407196 0.295845 0.000000
-0.269693 -0.424969 0.000000
-0.031700 0.503862 0.000000
0.442411 0.243217 0.000000
-0.270517 0.426266 0.000000
0.368026 0.345599 0.000000
-0.500877 -0.063276 0.000000
0.321809 -0.389000 0.000000
0.408439 0.296748 0.000000
-0.094601 0.495916 0.000000
0.504858 -0.000000 0.000000
-0.214958 0.456810 0.000000
-0.156010 0.480149 0.000000
0.031700 0.503862 0.000000
0.469405 0.185851 0.000000
0.368026 -0.345599 0.000000
0.408439 -0.296748 0.000000
0.321809 0.389000 0.000000
0.270517 0.426266 0.000000
-0.368026 0.345599 0.000000
-0.321809 0.389000 0.000000
0.214958 0.456810 0.000000
-0.321809 -0.389000 0.000000
0.156010 -0.480149 0.000000
0.270517 -0.426266 0.000000
-0.488997 -0.125553 0.000000
0.156010 0.480149 0.000000
-0.031700 -0.503862 0.000000
0.094601 0.495916 0.000000
-0.504858 0.000000 0.000000
0.442411 -0.243217 0.000000
-0.442411 -0.243217 0.000000
-0.488997 0.125553 0.000000
0.094601 -0.495916 0.000000
0.488997 0.125553 0.000000
-0.500877 0.063276 0.000000
0.214958 -0.456810 0.000000
0.031700 -0.503862 0.000000
0.469405 -0.185851 0.000000
0.500877 -0.063276 0.000000
-0.469405 -0.185851 0.000000
-0.214958 -0.456810 0.000000
-0.094601 -0.495916 0.000000
-0.408439 -0.296748 0.000000
-0.469405 0.185851 0.000000
0.500877 0.063276 0.000000
-0.156010 -0.480149 0.000000
0.488997 -0.125553 0.000000
-0.368026 -0.345599 0.000000
-0.442411 0.243217 0.000000
-0.408439 0.296748 0.000000
-0.270517 -0.426266 0.000000
-0.031815 0.505686 0.000000
0.444012 0.244098 0.000000
-0.271496 0.427809 0.000000
0.369358 0.346850 0.000000
-0.502691 -0.063505 0.000000
0.322974 -0.390408 0.000000
0.409918 0.297823 0.000000
-0.094943 0.497711 0.000000
0.506686 -0.000000 0.000000
-0.215736 0.458463 0.000000
-0.156575 0.481887 0.000000
0.031815 0.505686 0.000000
0.369358 -0.346850 0.000000
0.409918 -0.297823 0.000000
0.471105 0.186524 0.000000
0.322974 0.390408 0.000000
0.271496 0.427809 0.000000
-0.369358 0.346850 0.000000
-0.322974 0.390408 0.000000
0.215736 0.458463 0.000000
0.156575 -0.481887 0.000000
-0.322974 -0.390408 0.000000
0.271496 -0.427809 0.000000
-0.490768 -0.126008 0.000000
0.156575 0.481887 0.000000
-0.031815 -0.505686 0.000000
0.094943 0.497711 0.000000
-0.506686 0.000000 0.000000
0.444012 -0.244098 0.000000
-0.490768 0.126008 0.000000
-0.444012 -0.244098 0.000000
0.094943 -0.497711 0.000000
0.490768 0.126008 0.000000
-0.502691 0.063505 0.000000
0.215736 -0.458463 0.000000
0.031815 -0.505686 0.000000
0.471105 -0.186524 0.000000
-0.471105 -0.186524 0.000000
0.502691 -0.063505 0.000000
-0.215736 -0.458463 0.000000
-0.094943 -0.497711 0.000000
-0.409918 -0.297823 0.000000
-0.471105 0.186524 0.000000
0.502691 0.063505 0.000000
-0.156575 -0.481887 0.000000
0.490768 -0.126008 0.000000
-0.369358 -0.346850 0.000000
-0.444012 0.244098 0.000000
-0.409918 0.297823 0.000000
-0.271496 -0.427809 0.000000
-0.031952 0.507855 0.000000
0.445917 0.245145 0.000000
-0.272661 0.429644 0.000000
0.370943 0.348338 0.000000
-0.504847 -0.063777 0.000000
0.324359 -0.392083 0.000000
0.411676 0.299100 0.000000
-0.095351 0.499846 0.000000
0.508859 -0.000000 0.000000
-0.216662 0.460430 0.000000
-0.157246 0.483954 0.000000
0.031952 0.507855 0.000000
0.370943 -0.348338 0.000000
0.411676 -0.299100 0.000000
0.324359 0.392083 0.000000
0.473126 0.187324 0.000000
0.272661 0.429644 0.000000
-0.370943 0.348338 0.000000
-0.324359 0.392083 0.000000
0.216662 0.460430 0.000000
0.157246 -0.483954 0.000000
-0.324359 -0.392083 0.000000
0.272661 -0.429644 0.000000
0.157246 0.483954 0.000000
-0.492873 -0.126548 0.000000
-0.031952 -0.507855 0.000000
0.095351 0.499846 0.000000
0.445917 -0.245145 0.000000
-0.508859 0.000000 0.000000
-0.492873 0.126548 0.000000
-0.445917 -0.245145 0.000000
0.095351 -0.499846 0.000000
-0.504847 0.063777 0.000000
0.216662 -0.460430 0.000000
0.492873 0.126548 0.000000
0.031952 -0.507855 0.000000
0.473126 -0.187324 0.000000
-0.473126 -0.187324 0.000000
0.504847 -0.063777 0.000000
-0.216662 -0.460430 0.000000
-0.095351 -0.499846 0.000000
-0.473126 0.187324 0.000000
-0.411676 -0.299100 0.000000
-0.157246 -0.483954 0.000000
0.504847 0.063777 0.000000
0.492873 -0.126548 0.000000
-0.370943 -0.348338 0.000000
-0.445917 0.245145 0.000000
-0.411676 0.299100 0.000000
-0.272661 -0.429644 0.000000
0.318712 0.385257 0.100000
-0.318712 0.385257 0.100000
[...]
POINT_DATA 5000
SCALARS pressure float 1
LOOKUP_TABLE default
101581.623872
101581.623872
101581.623872
101581.623872
101581.623872
101581.623872
101581.623872
101581.623872
101581.623872
101581.623872
101581.623872
101581.623872
101581.623872
101581.623872
101581.623872
101581.623872
101325.000000
101325.000000
101325.000000
101325.000000
101325.000000
101325.000000
101325.000000
101325.000000
101325.000000
101325.000000
101325.000000
101325.000000
101325.000000
101325.000000
101325.000000
101325.000000
101325.000000
101325.000000
101325.000000
101325.000000
101325.000000
101325.000000
101325.000000
101325.000000
101325.000000
101325.000000
101325.000000
101325.000000
101325.000000
101325.000000
101325.000000
101325.000000
101325.000000
101325.000000
101324.233600
101324.821425
101324.451479
101324.639440
101324.987913
101324.543195
101324.734167
101324.257583
101325.000000
101324.370056
101324.304041
101324.233600
101324.895730
101324.543195
101324.639440
101324.734167
101324.639440
101324.543195
101324.451479
101324.370056
101324.543195
101324.304041
101324.952413
101324.304041
101324.451479
101324.257583
101324.233600
101325.000000
101324.821425
101324.821425
101324.257583
101324.952413
101324.952413
101324.987913
101324.370056
101324.233600
101324.987913
101324.895730
101324.895730
101324.370056
101324.257583
101324.734167
101324.987913
101324.952413
101324.304041
101324.639440
101324.895730
101324.821425
101324.734167
101324.451479
101323.350283
101324.615607
101323.819279
101324.223875
101324.973983
101324.016702
101324.427781
101323.401907
101325.000000
101323.644011
101323.501911
101323.350283
101324.775553
101324.223875
101324.427781
101324.016702
101324.223875
101324.016702
101323.819279
101323.644011
101324.016702
101323.501911
101324.897567
101323.501911
101323.819279
101323.401907
101323.350283
101325.000000
101324.615607
101324.615607
101323.401907
101324.897567
101324.897567
101324.973983
101323.644011
101323.350283
101324.775553
101324.973983
101324.775553
101323.644011
101323.401907
101324.427781
101324.973983
101323.501911
101324.897567
101324.223875
101324.775553
101324.615607
101324.427781
101323.819279
101322.309723
101324.373151
101323.074538
101323.734333
101324.957573
101323.396486
101324.066853
101322.393909
101325.000000
101322.788720
101322.556990
101322.309723
101324.633982
101323.734333
101324.066853
101323.396486
101323.074538
101323.734333
101323.396486
101322.788720
101323.396486
101322.556990
101324.832957
101322.556990
101323.074538
101322.309723
101322.393909
101325.000000
101324.373151
101324.373151
101324.832957
101322.393909
101324.832957
101324.957573
101322.788720
101322.309723
101324.633982
101324.957573
101324.633982
101322.788720
101322.393909
101324.066853
101324.957573
101322.556990
101324.832957
101324.633982
101323.734333
101324.373151
101324.066853
101323.074538
101321.083208
101324.087367
101322.196707
101323.157308
101324.938230
101322.665433
101323.641425
101321.205775
101325.000000
101321.780583
101321.443206
101321.083208
101324.467112
101323.157308
101323.641425
101322.665433
101322.196707
101323.157308
101322.665433
101321.780583
101322.665433
101321.443206
101322.196707
101324.756801
101321.443206
101321.083208
101321.205775
101325.000000
101324.087367
101324.087367
101324.756801
101321.205775
101324.756801
101324.938230
101321.780583
101321.083208
101324.467112
101324.938230
101324.467112
101321.780583
101321.205775
101323.641425
101324.467112
101324.938230
101321.443206
101324.756801
101323.157308
101324.087367
101323.641425
101322.196707
101319.638860
101323.750826
101321.162971
101322.477800
101324.915452
101321.804543
101323.140440
101319.806624
101325.000000
101320.593397
101320.131609
101319.638860
101322.477800
101323.140440
101324.270606
101321.804543
101321.162971
101322.477800
101321.804543
101320.593397
101320.131609
101321.804543
101321.162971
101324.667119
101320.131609
101319.638860
101319.806624
101325.000000
101323.750826
101324.667119
101323.750826
101319.806624
101324.667119
101324.915452
101320.593397
101319.638860
101324.270606
101324.270606
101324.915452
101320.593397
101319.806623
101323.140440
101324.270606
101324.915452
101320.131609
101324.667119
101322.477800
101323.750826
101323.140440
101321.162971
101317.941473
101323.355326
101319.948131
101321.679248
101324.888683
101320.792831
101322.551686
101318.162352
101325.000000
101319.198225
101318.590231
101317.941473
101321.679248
101322.551686
101320.792831
101324.039673
101319.948131
101321.679248
101320.792831
101319.198225
101318.590231
101320.792831
101319.948131
101318.590231
101324.561726
101317.941473
101318.162352
101323.355326
101325.000000
101324.561726
101323.355326
101318.162352
101324.888683
101319.198225
101324.561726
101317.941473
101324.039673
101324.039673
101324.888683
101319.198225
101318.162352
101324.039673
101322.551686
101318.590231
101324.888683
101324.561726
101321.679248
101323.355326
101322.551686
101319.948131
101581.623872
101581.623872
101581.623872
101581.623872
101581.623872
101581.623872
101581.623872
101581.623872
101581.623872
101581.623872
101581.623872
101581.623872
101581.623872
101581.623872
101581.623872
101581.623872
101325.000000
101325.000000
101325.000000
101325.000000
101325.000000
101325.000000
101325.000000
101325.000000
101325.000000
101325.000000
101325.000000
101325.000000
101325.000000
101325.000000
101325.000000
101325.000000
101325.000000
101325.000000
101325.000000
101325.000000
101325.000000
101325.000000
101325.000000
101325.000000
101325.000000
101325.000000
101325.000000
101325.000000
101325.000000
101325.000000
101325.000000
101325.000000
101325.000000
101325.000000
101324.233600
101324.821425
101324.257583
101324.734167
101324.734167
101324.304041
101324.639440
101324.304041
101324.451479
101324.370056
101324.451479
101324.543195
101324.821425
101324.233600
101324.987913
101324.304041
101324.639440
101324.895730
101324.952413
101324.370056
101324.543195
101324.257583
101324.543195
101324.451479
101324.952413
101324.821425
101325.000000
101324.370056
101324.952413
101324.257583
101324.370056
101324.895730
101324.895730
101325.000000
101324.987913
101324.639440
101324.233600
101324.233600
101324.543195
101324.987913
101324.821425
101324.895730
101324.734167
101324.987913
101324.304041
101324.257583
101324.451479
101324.952413
101324.639440
101324.734167
101315.952144
101322.891802
101320.743349
101318.524346
101324.857310
101319.607110
101321.861669
101316.235273
101325.000000
101317.563090
101316.783743
101315.952144
101320.743349
101321.861669
101319.607110
101323.769020
101318.524346
101317.563090
101320.743349
101319.607110
101316.783743
101319.607110
101318.524346
101316.783743
101324.438205
101315.952144
101316.235273
101322.891802
101325.000000
101324.438205
101322.891802
101316.235273
101317.563090
101324.857310
101324.438205
101315.952144
101323.769020
101323.769020
101324.857310
101317.563090
101323.769020
101316.235273
101321.861669
101316.783743
101324.857310
101324.438205
101320.743349
101322.891802
101321.861669
101318.524346
101323.350283
101324.615607
101323.401907
101324.427781
101324.427781
101324.223875
101323.501911
101323.501911
101323.819279
101323.644011
101323.819279
101324.016702
101324.615607
101323.350283
101324.973983
101323.501911
101324.223875
101324.775553
101324.897567
101323.644011
101324.016702
101323.401907
101324.016702
101323.819279
101324.897567
101324.615607
101323.644011
101325.000000
101324.897567
101323.401907
101323.644011
101324.775553
101324.775553
101324.973983
101325.000000
101324.223875
101323.350283
101323.350283
101324.016702
101324.973983
101324.615607
101324.775553
101324.427781
101324.973983
101323.501911
101323.401907
101323.819279
101324.897567
101324.223875
101324.427781
101322.309723
101324.373151
101322.393909
101324.066853
101324.066853
101323.734333
101322.556990
101322.556990
101323.074538
101322.788720
101323.074538
101323.396486
101324.373151
101324.957573
101322.309723
101322.556990
101323.734333
101324.832957
101324.633982
101322.788720
101323.396486
101322.393909
101323.396486
101323.074538
101324.832957
101324.373151
101322.788720
101325.000000
101324.832957
101322.393909
101322.788720
101324.633982
101324.633982
101324.957573
101325.000000
101323.734333
101322.309723
101322.309723
101323.396486
101324.957573
101324.373151
101324.633982
101324.066853
101324.957573
101322.556990
101322.393909
101323.074538
101324.832957
101323.734333
101324.066853
101313.626134
101322.349829
101319.649056
101316.859594
101324.820627
101318.220714
101321.054872
101313.982050
101325.000000
101315.651220
101314.671520
101313.626134
101321.054872
101319.649056
101318.220714
101323.452562
101316.859594
101315.651220
101319.649056
101318.220714
101314.671520
101316.859594
101318.220714
101314.671520
101324.293780
101313.626134
101322.349829
101313.982050
101325.000000
101324.293780
101322.349829
101313.982050
101315.651220
101324.820627
101324.293780
101313.626134
101323.452562
101323.452562
101324.820627
101315.651220
101323.452562
101313.982050
101321.054872
101314.671520
101324.820627
101322.349829
101324.293780
101319.649056
101316.859594
101321.054872
101321.083208
101324.087367
101321.205775
101323.641425
101323.641425
101323.157308
101321.443206
101321.443206
101322.196707
101322.196707
101321.780583
101322.665433
101324.087367
101324.938230
101321.083208
101321.443206
101323.157308
101324.756801
101324.467112
101321.780583
101322.665433
101321.205775
101322.665433
101322.196707
101324.756801
101324.087367
101321.780583
101325.000000
101324.756801
101321.205775
101321.780583
101324.467112
101324.467112
101324.938230
101325.000000
101323.157308
101321.083208
101321.083208
101322.665433
101324.938230
101324.087367
101324.467112
101323.641425
101324.938230
101321.443206
101321.205775
101322.196707
101324.756801
101323.157308
101323.641425
101319.638860
101323.750826
101323.140440
101319.806624
101323.140440
101322.477800
101320.131609
101320.131609
101321.162971
101321.162971
101320.593397
101321.804543
101323.750826
101324.915452
101320.131609
101319.638860
101322.477800
101324.667119
101320.593397
101324.270606
101321.804543
101319.806624
101321.162971
101321.804543
101324.667119
101323.750826
101320.593397
101325.000000
101319.806624
101324.667119
101320.593397
101324.270606
101324.270606
101324.915452
101325.000000
101322.477800
101319.638860
101319.638860
101321.804543
101324.915452
101323.750826
101324.270606
101323.140440
101320.131609
101319.806623
101324.915452
101321.162971
101324.667119
101322.477800
101323.140440
101310.911430
101321.717289
101318.371897
101314.916649
101324.777815
101316.602640
101320.113252
101311.352296
101325.000000
101313.419862
101312.206327
101310.911430
101320.113252
101318.371897
101316.602639
101314.916649
101323.083221
101313.419862
101318.371897
101316.602639
101312.206327
101314.916649
101316.602639
101312.206327
101324.125220
101310.911430
101321.717289
101311.352296
101325.000000
101324.125220
101311.352296
101321.717289
101313.419862
101324.777815
101324.125220
101310.911430
101323.083221
101323.083221
101323.083221
101313.419862
101324.777815
101311.352296
101312.206327
101320.113252
101324.777815
101321.717289
101324.125220
101318.371897
101314.916649
101320.113252
101317.941473
101323.355326
101322.551686
101318.162352
101322.551686
101321.679248
101318.590231
101318.590231
101319.948131
101319.948131
101319.198225
101320.792831
101323.355326
101324.888683
101318.590231
101317.941473
101321.679248
101324.561726
101319.198225
101324.039673
101320.792831
101319.948131
101318.162352
101320.792831
101324.561726
101323.355326
101319.198225
101325.000000
101318.162352
101324.561726
101319.198225
101324.039673
101324.039673
101324.888683
101325.000000
101321.679248
101317.941473
101317.941473
101320.792831
101324.039673
101323.355326
101324.888683
101322.551686
101318.590231
101318.162352
101319.948131
101324.888683
101324.561726
101321.679248
101322.551686
101315.952144
101322.891802
101321.861669
101321.861669
101320.743349
101316.235273
101316.783743
101316.783743
101318.524346
101318.524346
101317.563090
101319.607110
101322.891802
101324.857310
101316.783743
101315.952144
101320.743349
101324.438205
101317.563090
101323.769020
101319.607110
101318.524346
101316.235273
101324.438205
101322.891802
101319.607110
101317.563090
101316.235273
101325.000000
101317.563090
101324.438205
101323.769020
101323.769020
101324.857310
101325.000000
101315.952144
101320.743349
101315.952144
101319.607110
101323.769020
101322.891802
101324.857310
101321.861669
101316.783743
101316.235273
101318.524346
101324.857310
101324.438205
101320.743349
101321.861669
101307.762416
101320.983552
101316.890413
101312.662864
101324.728153
101314.725699
101319.020988
101308.301823
101325.000000
101310.831522
101309.346743
101307.762416
101319.020988
101316.890413
101314.725699
101312.662864
101310.831522
101322.654791
101309.346743
101316.890413
101314.725699
101312.662864
101309.346743
101314.725699
101323.929693
101320.983552
101307.762416
101308.301823
101325.000000
101323.929693
101308.301823
101320.983552
101310.831522
101324.728153
101323.929693
101307.762416
101322.654791
101322.654791
101322.654791
101310.831522
101324.728153
101308.301823
101309.346743
101319.020988
101320.983552
101324.728153
101323.929693
101316.890413
101312.662864
101319.020988
101313.626134
101322.349829
101321.054872
101321.054872
101319.649056
101314.671520
101313.982050
101314.671520
101316.859594
101316.859594
101318.220714
101315.651220
101322.349829
101314.671520
101324.820627
101313.626134
101319.649056
101324.293780
101315.651220
101323.452562
101318.220714
101316.859594
101313.982050
101322.349829
101324.293780
101318.220714
101315.651220
101313.982050
101315.651220
101325.000000
101324.293780
101323.452562
101323.452562
101324.820627
101325.000000
101313.626134
101313.626134
101319.649056
101323.452562
101318.220714
101322.349829
101324.820627
101321.054872
101314.671520
101313.982050
101316.859594
101324.293780
101324.820627
101319.649056
101321.054872
101304.127340
101320.136560
101315.180257
101310.061198
101324.670826
101312.559047
101317.760129
101304.780498
101325.000000
101306.045772
101307.843662
101304.127340
101317.760129
101315.180257
101312.559047
101310.061198
101307.843662
101322.160231
101306.045772
101310.061198
101315.180257
101312.559047
101306.045772
101323.703986
101320.136560
101312.559047
101304.127340
101304.780497
101323.703986
101325.000000
101304.780497
101320.136560
101307.843662
101324.670826
101304.127340
101323.703986
101322.160231
101322.160231
101322.160231
101307.843662
101304.780497
101324.670826
101306.045772
101317.760129
101320.136560
101324.670826
101323.703986
101315.180257
101310.061198
101317.760129
101310.911430
101321.717289
101320.113252
101320.113252
101318.371897
101312.206327
101311.352296
101312.206327
101314.916649
101314.916649
101316.602640
101313.419862
101321.717289
101312.206327
101324.777815
101318.371897
101324.125220
101310.911430
101313.419862
101323.083221
101316.602639
101314.916649
101321.717289
101311.352296
101324.125220
101313.419862
101316.602639
101313.419862
101311.352296
101325.000000
101324.125220
101323.083221
101323.083221
101324.777815
101325.000000
101310.911430
101310.911430
101318.371897
101323.083221
101316.602639
101321.717289
101324.777815
101312.206327
101320.113252
101311.352296
101314.916649
101324.125220
101324.777815
101318.371897
101320.113252
101307.762416
101320.983552
101319.020988
101309.346743
101316.890413
101319.020988
101308.301823
101309.346743
101312.662864
101312.662864
101314.725699
101320.983552
101310.831522
101309.346743
101324.728153
101316.890413
101323.929693
101307.762416
101310.831522
101314.725699
101312.662864
101322.654791
101320.983552
101308.301823
101323.929693
101310.831522
101310.831522
101314.725699
101308.301823
101325.000000
101323.929693
101322.654791
101322.654791
101324.728153
101307.762416
101307.762416
101325.000000
101322.654791
101316.890413
101314.725699
101320.983552
101324.728153
101309.346743
101312.662864
101308.301823
101319.020988
101323.929693
101324.728153
101316.890413
101319.020988
101299.951054
101319.163464
101313.215483
101307.072182
101310.069810
101324.604963
101316.311546
101300.734897
101325.000000
101302.253333
101304.410952
101316.311546
101299.951053
101313.215483
101310.069810
101304.410952
101307.072182
101321.592038
101302.253333
101307.072182
101302.253333
101313.215483
101319.163464
101310.069810
101323.444674
101299.951053
101310.069810
101300.734897
101323.444674
101325.000000
101300.734897
101319.163464
101304.410952
101324.604963
101299.951053
101323.444674
101321.592038
101321.592038
101321.592038
101304.410952
101300.734897
101302.253333
101324.604963
101319.163464
101316.311546
101324.604963
101323.444674
101307.072182
101313.215483
101316.311546
101304.127340
101320.136560
101317.760129
101306.045772
101315.180257
101317.760129
101304.780498
101306.045772
101310.061198
101310.061198
101312.559047
101320.136560
101306.045772
101307.843662
101324.670826
101323.703986
101315.180257
101307.843662
101304.127340
101310.061198
101312.559047
101320.136560
101322.160231
101307.843662
101323.703986
101307.843662
101304.780497
101312.559047
101304.780497
101322.160231
101322.160231
101325.000000
101323.703986
101324.670826
101304.127340
101304.127340
101322.160231
101325.000000
101315.180257
101320.136560
101312.559047
101324.670826
101306.045772
101310.061198
101304.780497
101317.760129
101323.703986
101324.670826
101315.180257
101317.760129
101295.167433
101318.048855
101310.964983
101303.648491
101307.218578
101324.529523
101314.652304
101296.100968
101325.000000
101314.652304
101310.964983
101297.909381
101300.479042
101295.167433
101300.479042
101307.218578
101303.648490
101297.909381
101303.648490
101320.941217
101318.048855
101297.909381
101323.147652
101310.964983
101307.218578
101295.167433
101307.218578
101323.147652
101296.100968
101325.000000
101296.100968
101318.048855
101300.479042
101324.529523
101320.941217
101295.167433
101320.941217
101323.147652
101300.479042
101320.941217
101296.100968
101297.909381
101324.529523
101318.048855
101314.652304
101324.529523
101303.648490
101323.147652
101310.964983
101314.652304
101299.951053
101319.163464
101316.311546
101302.253333
101313.215483
101316.311546
101300.734897
101307.072182
101302.253333
101310.069810
101307.072182
101319.163464
101302.253333
101323.444674
101324.604963
101313.215483
101304.410952
101304.410952
101299.951053
101307.072182
101310.069810
101304.410952
101319.163464
101304.410952
101323.444674
101321.592038
101300.734897
101300.734897
101310.069810
101321.592038
101321.592038
101323.444674
101325.000000
101324.604963
101321.592038
101299.951053
101299.951053
101325.000000
101319.163464
101313.215483
101310.069810
101302.253333
101324.604963
101307.072182
101300.734897
101316.311546
101323.444674
101324.604963
101313.215483
101316.311546
101289.750296
101316.786634
101308.416438
101299.771383
101303.989744
101324.444091
101312.773321
101290.853347
101325.000000
101312.773321
101308.416438
101296.026412
101303.989744
101299.771383
101292.990140
101289.750296
101296.026412
101292.990139
101299.771383
101316.786634
101292.990139
101320.204204
101322.811294
101289.750296
101308.416438
101303.989744
101303.989744
101322.811294
101290.853347
101325.000000
101290.853347
101316.786634
101296.026412
101320.204204
101324.444091
101289.750296
101296.026412
101320.204204
101322.811294
101320.204204
101292.990139
101290.853347
101316.786633
101324.444091
101312.773321
101299.771383
101324.444091
101322.811294
101308.416438
101312.773321
101295.167433
101314.652304
101318.048855
101297.909381
101310.964983
101314.652304
101296.100968
101303.648490
101307.218578
101297.909381
101318.048855
101303.648490
101297.909381
101323.147652
101310.964983
101324.529523
101300.479042
101300.479042
101295.167433
101300.479042
101303.648490
101307.218578
101318.048855
101300.479042