# vtk DataFile Version 3.0
Time Step 24, Physical Time = 0.000240s, Residual = 7.87e-03
ASCII
DATASET UNSTRUCTURED_GRID
POINTS 5000 float
0.318712 0.385257 0.000000
-0.318712 0.385257 0.000000
-0.318712 -0.385257 0.000000
0.318712 -0.385257 0.000000
0.093691 0.491144 0.000000
-0.093691 0.491144 0.000000
-0.093691 -0.491144 0.000000
0.093691 -0.491144 0.000000
0.404508 0.293893 0.000000
-0.404508 0.293893 0.000000
-0.404508 -0.293893 0.000000
0.404508 -0.293893 0.000000
0.438153 0.240877 0.000000
-0.438153 0.240877 0.000000
-0.438153 -0.240877 0.000000
0.438153 -0.240877 0.000000
0.500000 0.000000 0.000000
-0.500000 -0.000000 0.000000
0.364484 0.342274 0.000000
-0.364484 0.342274 0.000000
-0.364484 -0.342274 0.000000
0.364484 -0.342274 0.000000
0.496057 0.062667 0.000000
-0.496057 0.062667 0.000000
-0.496057 -0.062667 0.000000
0.496057 -0.062667 0.000000
0.212890 0.452414 0.000000
-0.212890 0.452414 0.000000
-0.212890 -0.452414 0.000000
0.212890 -0.452414 0.000000
0.154508 0.475528 0.000000
-0.154508 0.475528 0.000000
-0.154508 -0.475528 0.000000
0.154508 -0.475528 0.000000
0.267913 0.422164 0.000000
-0.267913 0.422164 0.000000
-0.267913 -0.422164 0.000000
0.267913 -0.422164 0.000000
0.031395 0.499013 0.000000
-0.031395 0.499013 0.000000
-0.031395 -0.499013 0.000000
0.031395 -0.499013 0.000000
0.464888 0.184062 0.000000
-0.464888 0.184062 0.000000
-0.464888 -0.184062 0.000000
0.464888 -0.184062 0.000000
0.484292 0.124345 0.000000
-0.484292 0.124345 0.000000
-0.484292 -0.124345 0.000000
0.484292 -0.124345 0.000000
-0.031454 0.499951 0.000000
0.438977 0.241329 0.000000
-0.268417 0.422957 0.000000
0.365169 0.342917 0.000000
-0.496990 -0.062784 0.000000
0.319311 -0.385981 0.000000
0.405269 0.294445 0.000000
-0.093867 0.492067 0.000000
0.500940 -0.000000 0.000000
-0.213290 0.453264 0.000000
-0.154799 0.476422 0.000000
0.031454 0.499951 0.000000
0.465762 0.184408 0.000000
0.319311 0.385981 0.000000
0.365169 -0.342917 0.000000
0.405269 -0.294445 0.000000
-0.365169 0.342917 0.000000
-0.319311 0.385981 0.000000
0.268417 0.422957 0.000000
0.213290 0.453264 0.000000
-0.319311 -0.385981 0.000000
0.154799 -0.476422 0.000000
-0.485202 -0.124579 0.000000
0.154799 0.476422 0.000000
0.268417 -0.422957 0.000000
0.093867 0.492067 0.000000
-0.031454 -0.499951 0.000000
-0.500940 0.000000 0.000000
0.438977 -0.241329 0.000000
-0.438977 -0.241329 0.000000
0.093867 -0.492067 0.000000
-0.485202 0.124579 0.000000
0.485202 0.124579 0.000000
-0.496990 0.062784 0.000000
0.213290 -0.453264 0.000000
0.031454 -0.499951 0.000000
0.496990 -0.062784 0.000000
0.465762 -0.184408 0.000000
-0.465762 -0.184408 0.000000
-0.213290 -0.453264 0.000000
-0.093867 -0.492067 0.000000
-0.405269 -0.294445 0.000000
0.496990 0.062784 0.000000
0.485202 -0.124579 0.000000
-0.154799 -0.476422 0.000000
-0.365169 -0.342917 0.000000
-0.465762 0.184408 0.000000
-0.438977 0.241329 0.000000
-0.405269 0.294445 0.000000
-0.268417 -0.422957 0.000000
-0.031523 0.501039 0.000000
0.439932 0.241854 0.000000
-0.269001 0.423877 0.000000
0.365964 0.343663 0.000000
-0.498071 -0.062921 0.000000
0.320005 -0.386820 0.000000
0.406150 0.295085 0.000000
-0.094071 0.493137 0.000000
0.502029 -0.000000 0.000000
-0.213754 0.454250 0.000000
-0.155136 0.477458 0.000000
0.031523 0.501039 0.000000
0.466775 0.184809 0.000000
0.365964 -0.343663 0.000000
0.406150 -0.295085 0.000000
0.320005 0.386820 0.000000
-0.365964 0.343663 0.000000
-0.320005 0.386820 0.000000
0.269001 0.423877 0.000000
0.213754 0.454250 0.000000
-0.320005 -0.386820 0.000000
0.155136 -0.477458 0.000000
-0.486257 -0.124850 0.000000
0.155136 0.477458 0.000000
0.269001 -0.423877 0.000000
0.094071 0.493137 0.000000
-0.031523 -0.501039 0.000000
-0.502029 0.000000 0.000000
0.439932 -0.241854 0.000000
-0.439932 -0.241854 0.000000
0.094071 -0.493137 0.000000
-0.486257 0.124850 0.000000
0.486257 0.124850 0.000000
-0.498071 0.062921 0.000000
0.213754 -0.454250 0.000000
0.031523 -0.501039 0.000000
0.466775 -0.184809 0.000000
0.498071 -0.062921 0.000000
-0.466775 -0.184809 0.000000
-0.213754 -0.454250 0.000000
-0.094071 -0.493137 0.000000
-0.406150 -0.295085 0.000000
0.498071 0.062921 0.000000
-0.155136 -0.477458 0.000000
0.486257 -0.124850 0.000000
-0.365964 -0.343663 0.000000
-0.466775 0.184809 0.000000
-0.439932 0.241854 0.000000
-0.406150 0.295085 0.000000
-0.269001 -0.423877 0.000000
-0.031604 0.502329 0.000000
0.441064 0.242477 0.000000
-0.269693 0.424969 0.000000
0.366906 0.344547 0.000000
-0.499353 -0.063083 0.000000
0.320829 -0.387816 0.000000
0.407196 0.295845 0.000000
-0.094313 0.494407 0.000000
0.503322 -0.000000 0.000000
-0.214304 0.455419 0.000000
-0.155535 0.478688 0.000000
0.031604 0.502329 0.000000
0.467977 0.185285 0.000000
0.366906 -0.344547 0.000000
0.407196 -0.295845 0.000000
0.320829 0.387816 0.000000
0.269693 0.424969 0.000000
-0.366906 0.344547 0.000000
-0.320829 0.387816 0.000000
0.214304 0.455419 0.000000
-0.320829 -0.387816 0.000000
0.155535 -0.478688 0.000000
-0.487509 -0.125171 0.000000
0.155535 0.478688 0.000000
0.269693 -0.424969 0.000000
-0.031604 -0.502329 0.000000
0.094313 0.494407 0.000000
-0.503322 0.000000 0.000000
0.441064 -0.242477 0.000000
-0.441064 -0.242477 0.000000
-0.487509 0.125171 0.000000
0.094313 -0.494407 0.000000
0.487509 0.125171 0.000000
-0.499353 0.063083 0.000000
0.214304 -0.455419 0.000000
0.031604 -0.502329 0.000000
0.467977 -0.185285 0.000000
0.499353 -0.063083 0.000000
-0.467977 -0.185285 0.000000
-0.214304 -0.455419 0.000000
-0.094313 -0.494407 0.000000
-0.407196 -0.295845 0.000000
0.499353 0.063083 0.000000
-0.155535 -0.478688 0.000000
0.487509 -0.125171 0.000000
-0.467977 0.185285 0.000000
-0.366906 -0.344547 0.000000
-0.441064 0.242477 0.000000
-0.407196 0.295845 0.000000
-0.269693 -0.424969 0.000000
-0.031700 0.503862 0.000000
0.442411 0.243217 0.000000
-0.270517 0.426266 0.000000
0.368026 0.345599 0.000000
-0.500877 -0.063276 0.000000
0.321809 -0.389000 0.000000
0.408439 0.296748 0.000000
-0.094601 0.495916 0.000000
0.504858 -0.000000 0.000000
-0.214958 0.456810 0.000000
-0.156010 0.480149 0.000000
0.031700 0.503862 0.000000
0.469405 0.185851 0.000000
0.368026 -0.345599 0.000000
0.408439 -0.296748 0.000000
0.321809 0.389000 0.000000
0.270517 0.426266 0.000000
-0.368026 0.345599 0.000000
-0.321809 0.389000 0.000000
0.214958 0.456810 0.000000
-0.321809 -0.389000 0.000000
0.156010 -0.480149 0.000000
0.270517 -0.426266 0.000000
-0.488997 -0.125553 0.000000
0.156010 0.480149 0.000000
-0.031700 -0.503862 0.000000
0.094601 0.495916 0.000000
-0.504858 0.000000 0.000000
0.442411 -0.243217 0.000000
-0.442411 -0.243217 0.000000
-0.488997 0.125553 0.000000
0.094601 -0.495916 0.000000
0.488997 0.125553 0.000000
-0.500877 0.063276 0.000000
0.214958 -0.456810 0.000000
0.031700 -0.503862 0.000000
0.469405 -0.185851 0.000000
0.500877 -0.063276 0.000000
-0.469405 -0.185851 0.000000
-0.214958 -0.456810 0.000000
-0.094601 -0.495916 0.000000
-0.408439 -0.296748 0.000000
-0.469405 0.185851 0.000000
0.500877 0.063276 0.000000
-0.156010 -0.480149 0.000000
0.488997 -0.125553 0.000000
-0.368026 -0.345599 0.000000
-0.442411 0.243217 0.000000
-0.408439 0.296748 0.000000
-0.270517 -0.426266 0.000000
-0.031815 0.505686 0.000000
0.444012 0.244098 0.000000
-0.271496 0.427809 0.000000
0.369358 0.346850 0.000000
-0.502691 -0.063505 0.000000
0.322974 -0.390408 0.000000
0.409918 0.297823 0.000000
-0.094943 0.497711 0.000000
0.506686 -0.000000 0.000000
-0.215736 0.458463 0.000000
-0.156575 0.481887 0.000000
0.031815 0.505686 0.000000
0.369358 -0.346850 0.000000
0.409918 -0.297823 0.000000
0.471105 0.186524 0.000000
0.322974 0.390408 0.000000
0.271496 0.427809 0.000000
-0.369358 0.346850 0.000000
-0.322974 0.390408 0.000000
0.215736 0.458463 0.000000
0.156575 -0.481887 0.000000
-0.322974 -0.390408 0.000000
0.271496 -0.427809 0.000000
-0.490768 -0.126008 0.000000
0.156575 0.481887 0.000000
-0.031815 -0.505686 0.000000
0.094943 0.497711 0.000000
-0.506686 0.000000 0.000000
0.444012 -0.244098 0.000000
-0.490768 0.126008 0.000000
-0.444012 -0.244098 0.000000
0.094943 -0.497711 0.000000
0.490768 0.126008 0.000000
-0.502691 0.063505 0.000000
0.215736 -0.458463 0.000000
0.031815 -0.505686 0.000000
0.471105 -0.186524 0.000000
-0.471105 -0.186524 0.000000
0.502691 -0.063505 0.000000
-0.215736 -0.458463 0.000000
-0.094943 -0.497711 0.000000
-0.409918 -0.297823 0.000000
-0.471105 0.186524 0.000000
0.502691 0.063505 0.000000
-0.156575 -0.481887 0.000000
0.490768 -0.126008 0.000000
-0.369358 -0.346850 0.000000
-0.444012 0.244098 0.000000
-0.409918 0.297823 0.000000
-0.271496 -0.427809 0.000000
-0.031952 0.507855 0.000000
0.445917 0.245145 0.000000
-0.272661 0.429644 0.000000
0.370943 0.348338 0.000000
-0.504847 -0.063777 0.000000
0.324359 -0.392083 0.000000
0.411676 0.299100 0.000000
-0.095351 0.499846 0.000000
0.508859 -0.000000 0.000000
-0.216662 0.460430 0.000000
-0.157246 0.483954 0.000000
0.031952 0.507855 0.000000
0.370943 -0.348338 0.000000
0.411676 -0.299100 0.000000
0.324359 0.392083 0.000000
0.473126 0.187324 0.000000
0.272661 0.429644 0.000000
-0.370943 0.348338 0.000000
-0.324359 0.392083 0.000000
0.216662 0.460430 0.000000
0.157246 -0.483954 0.000000
-0.324359 -0.392083 0.000000
0.272661 -0.429644 0.000000
0.157246 0.483954 0.000000
-0.492873 -0.126548 0.000000
-0.031952 -0.507855 0.000000
0.095351 0.499846 0.000000
0.445917 -0.245145 0.000000
-0.508859 0.000000 0.000000
-0.492873 0.126548 0.000000
-0.445917 -0.245145 0.000000
0.095351 -0.499846 0.000000
-0.504847 0.063777 0.000000
0.216662 -0.460430 0.000000
0.492873 0.126548 0.000000
0.031952 -0.507855 0.000000
0.473126 -0.187324 0.000000
-0.473126 -0.187324 0.000000
0.504847 -0.063777 0.000000
-0.216662 -0.460430 0.000000
-0.095351 -0.499846 0.000000
-0.473126 0.187324 0.000000
-0.411676 -0.299100 0.000000
-0.157246 -0.483954 0.000000
0.504847 0.063777 0.000000
0.492873 -0.126548 0.000000
-0.370943 -0.348338 0.000000
-0.445917 0.245145 0.000000
-0.411676 0.299100 0.000000
-0.272661 -0.429644 0.000000
0.318712 0.385257 0.100000
-0.318712 0.385257 0.100000
[...]
POINT_DATA 5000
SCALARS pressure float 1
LOOKUP_TABLE default
101515.608304
101515.608304
101515.608304
101515.608304
101515.608304
101515.608304
101515.608304
101515.608304
101515.608304
101515.608304
101515.608304
101515.608304
101515.608304
101515.608304
101515.608304
101515.608304
101325.000000
101325.000000
101325.000000
101325.000000
101325.000000
101325.000000
101325.000000
101325.000000
101325.000000
101325.000000
101325.000000
101325.000000
101325.000000
101325.000000
101325.000000
101325.000000
101325.000000
101325.000000
101325.000000
101325.000000
101325.000000
101325.000000
101325.000000
101325.000000
101325.000000
101325.000000
101325.000000
101325.000000
101325.000000
101325.000000
101325.000000
101325.000000
101325.000000
101325.000000
101324.430754
101324.867363
101324.592584
101324.732193
101324.991023
101324.660706
101324.802552
101324.448567
101325.000000
101324.532107
101324.483074
101324.430754
101324.922553
101324.660706
101324.732193
101324.802552
101324.732193
101324.660706
101324.592584
101324.532107
101324.660706
101324.483074
101324.964655
101324.483074
101324.592584
101324.448567
101324.430754
101325.000000
101324.867363
101324.867363
101324.448567
101324.964655
101324.964655
101324.991023
101324.532107
101324.430754
101324.991023
101324.922553
101324.922553
101324.532107
101324.448567
101324.802552
101324.991023
101324.964655
101324.483074
101324.732193
101324.922553
101324.867363
101324.802552
101324.592584
101323.774667
101324.714491
101324.123015
101324.423530
101324.980676
101324.269652
101324.574982
101323.813011
101325.000000
101323.992834
101323.887289
101323.774667
101324.833291
101324.423530
101324.574982
101324.269652
101324.423530
101324.269652
101324.123015
101323.992834
101324.269652
101323.887289
101324.923917
101323.887289
101324.123015
101323.813011
101323.774667
101325.000000
101324.714491
101324.714491
101323.813011
101324.923917
101324.923917
101324.980676
101323.992834
101323.774667
101324.833291
101324.980676
101324.833291
101323.992834
101323.813011
101324.574982
101324.980676
101323.887289
101324.923917
101324.423530
101324.833291
101324.714491
101324.574982
101324.123015
101323.001787
101324.534406
101323.569856
101324.059922
101324.968487
101323.808984
101324.306902
101323.064316
101325.000000
101323.357564
101323.185445
101323.001787
101324.728139
101324.059922
101324.306902
101323.808984
101323.569856
101324.059922
101323.808984
101323.357564
101323.808984
101323.185445
101324.875928
101323.185445
101323.569856
101323.001787
101323.064316
101325.000000
101324.534406
101324.534406
101324.875928
101323.064316
101324.875928
101324.968487
101323.357564
101323.001787
101324.728139
101324.968487
101324.728139
101323.357564
101323.064316
101324.306902
101324.968487
101323.185445
101324.875928
101324.728139
101324.059922
101324.534406
101324.306902
101323.569856
101322.090789
101324.322139
101322.917844
101323.631334
101324.954120
101323.265992
101323.990914
101322.181825
101325.000000
101322.608766
101322.358178
101322.090789
101324.604196
101323.631334
101323.990914
101323.265992
101322.917844
101323.631334
101323.265992
101322.608766
101323.265992
101322.358178
101322.917844
101324.819363
101322.358178
101322.090789
101322.181825
101325.000000
101324.322139
101324.322139
101324.819363
101322.181825
101324.819363
101324.954120
101322.608766
101322.090789
101324.604196
101324.954120
101324.604196
101322.608766
101322.181825
101323.990914
101324.604196
101324.954120
101322.358178
101324.819363
101323.631334
101324.322139
101323.990914
101322.917844
101321.017994
101324.072172
101322.150033
101323.126627
101324.937201
101322.626563
101323.618805
101321.142601
101325.000000
101321.726980
101321.383985
101321.017994
101323.126627
101323.618805
101324.458240
101322.626563
101322.150033
101323.126627
101322.626563
101321.726980
101321.383985
101322.626563
101322.150033
101324.752751
101321.383985
101321.017994
101321.142601
101325.000000
101324.072172
101324.752751
101324.072172
101321.142601
101324.752751
101324.937201
101321.726980
101321.017994
101324.458240
101324.458240
101324.937201
101321.726980
101321.142601
101323.618805
101324.458240
101324.937201
101321.383985
101324.752751
101323.126627
101324.072172
101323.618805
101322.150033
101319.757254
101323.778413
101321.247706
101322.533500
101324.917319
101321.875110
101323.181506
101319.921312
101325.000000
101320.690711
101320.239121
101319.757254
101322.533500
101323.181506
101321.875110
101324.286713
101321.247706
101322.533500
101321.875110
101320.690711
101320.239121
101321.875110
101321.247706
101320.239121
101324.674470
101319.757254
101319.921312
101323.778413
101325.000000
101324.674470
101323.778413
101319.921312
101324.917319
101320.690711
101324.674470
101319.757254
101324.286713
101324.286713
101324.917319
101320.690711
101319.921312
101324.286713
101323.181506
101320.239121
101324.917319
101324.674470
101322.533500
101323.778413
101323.181506
101321.247706
101515.608304
101515.608304
101515.608304
101515.608304
101515.608304
101515.608304
101515.608304
101515.608304
101515.608304
101515.608304
101515.608304
101515.608304
101515.608304
101515.608304
101515.608304
101515.608304
101325.000000
101325.000000
101325.000000
101325.000000
101325.000000
101325.000000
101325.000000
101325.000000
101325.000000
101325.000000
101325.000000
101325.000000
101325.000000
101325.000000
101325.000000
101325.000000
101325.000000
101325.000000
101325.000000
101325.000000
101325.000000
101325.000000
101325.000000
101325.000000
101325.000000
101325.000000
101325.000000
101325.000000
101325.000000
101325.000000
101325.000000
101325.000000
101325.000000
101325.000000
101324.430754
101324.867363
101324.448567
101324.802552
101324.802552
101324.483074
101324.732193
101324.483074
101324.592584
101324.532107
101324.592584
101324.660706
101324.867363
101324.430754
101324.991023
101324.483074
101324.732193
101324.922553
101324.964655
101324.532107
101324.660706
101324.448567
101324.660706
101324.592584
101324.964655
101324.867363
101325.000000
101324.532107
101324.964655
101324.448567
101324.532107
101324.922553
101324.922553
101325.000000
101324.991023
101324.732193
101324.430754
101324.430754
101324.660706
101324.991023
101324.867363
101324.922553
101324.802552
101324.991023
101324.483074
101324.448567
101324.592584
101324.964655
101324.732193
101324.802552
101318.279672
101323.434128
101321.838357
101320.190184
101324.894016
101320.994411
101322.668993
101318.489968
101325.000000
101319.476209
101318.897346
101318.279672
101321.838357
101322.668993
101320.994411
101324.085685
101320.190184
101319.476209
101321.838357
101320.994411
101318.897346
101320.994411
101320.190184
101318.897346
101324.582725
101318.279672
101318.489968
101323.434128
101325.000000
101324.582725
101323.434128
101318.489968
101319.476209
101324.894016
101324.582725
101318.279672
101324.085685
101324.085685
101324.894016
101319.476209
101324.085685
101318.489968
101322.668993
101318.897346
101324.894016
101324.582725
101321.838357
101323.434128
101322.668993
101320.190184
101323.774667
101324.714491
101323.813011
101324.574982
101324.574982
101324.423530
101323.887289
101323.887289
101324.123015
101323.992834
101324.123015
101324.269652
101324.714491
101323.774667
101324.980676
101323.887289
101324.423530
101324.833291
101324.923917
101323.992834
101324.269652
101323.813011
101324.269652
101324.123015
101324.923917
101324.714491
101323.992834
101325.000000
101324.923917
101323.813011
101323.992834
101324.833291
101324.833291
101324.980676
101325.000000
101324.423530
101323.774667
101323.774667
101324.269652
101324.980676
101324.714491
101324.833291
101324.574982
101324.980676
101323.887289
101323.813011
101324.123015
101324.923917
101324.423530
101324.574982
101323.001787
101324.534406
101323.064316
101324.306902
101324.306902
101324.059922
101323.185445
101323.185445
101323.569856
101323.357564
101323.569856
101323.808984
101324.534406
101324.968487
101323.001787
101323.185445
101324.059922
101324.875928
101324.728139
101323.357564
101323.808984
101323.064316
101323.808984
101323.569856
101324.875928
101324.534406
101323.357564
101325.000000
101324.875928
101323.064316
101323.357564
101324.728139
101324.728139
101324.968487
101325.000000
101324.059922
101323.001787
101323.001787
101323.808984
101324.968487
101324.534406
101324.728139
101324.306902
101324.968487
101323.185445
101323.064316
101323.569856
101324.875928
101324.059922
101324.306902
101316.552020
101323.031576
101321.025567
101318.953684
101324.866770
101319.964661
101322.069742
101316.816378
101325.000000
101318.056160
101317.328484
101316.552020
101322.069742
101321.025567
101319.964661
101323.850635
101318.953684
101318.056160
101321.025567
101319.964661
101317.328484
101318.953684
101319.964661
101317.328484
101324.475453
101316.552020
101323.031576
101316.816378
101325.000000
101324.475453
101323.031576
101316.816378
101318.056160
101324.866770
101324.475453
101316.552020
101323.850635
101323.850635
101324.866770
101318.056160
101323.850635
101316.816378
101322.069742
101317.328484
101324.866770
101323.031576
101324.475453
101321.025567
101318.953684
101322.069742
101322.090789
101324.322139
101322.181825
101323.990914
101323.990914
101323.631334
101322.358178
101322.358178
101322.917844
101322.917844
101322.608766
101323.265992
101324.322139
101324.954120
101322.090789
101322.358178
101323.631334
101324.819363
101324.604196
101322.608766
101323.265992
101322.181825
101323.265992
101322.917844
101324.819363
101324.322139
101322.608766
101325.000000
101324.819363
101322.181825
101322.608766
101324.604196
101324.604196
101324.954120
101325.000000
101323.631334
101322.090789
101322.090789
101323.265992
101324.954120
101324.322139
101324.604196
101323.990914
101324.954120
101322.358178
101322.181825
101322.917844
101324.819363
101323.631334
101323.990914
101321.017994
101324.072172
101323.618805
101321.142601
101323.618805
101323.126627
101321.383985
101321.383985
101322.150033
101322.150033
101321.726980
101322.626563
101324.072172
101324.937201
101321.383985
101321.017994
101323.126627
101324.752751
101321.726980
101324.458240
101322.626563
101321.142601
101322.150033
101322.626563
101324.752751
101324.072172
101321.726980
101325.000000
101321.142601
101324.752751
101321.726980
101324.458240
101324.458240
101324.937201
101325.000000
101323.126627
101321.017994
101321.017994
101322.626563
101324.937201
101324.072172
101324.458240
101323.618805
101321.383985
101321.142601
101324.937201
101322.150033
101324.752751
101323.126627
101323.618805
101314.535664
101322.561755
101320.076953
101317.510555
101324.834971
101318.762830
101321.370350
101314.863119
101325.000000
101316.398811
101315.497454
101314.535664
101321.370350
101320.076953
101318.762830
101317.510555
101323.576305
101316.398811
101320.076953
101318.762830
101315.497454
101317.510555
101318.762830
101315.497454
101324.350254
101314.535664
101322.561755
101314.863119
101325.000000
101324.350254
101314.863119
101322.561755
101316.398811
101324.834971
101324.350254
101314.535664
101323.576305
101323.576305
101323.576305
101316.398811
101324.834971
101314.863119
101315.497454
101321.370350
101324.834971
101322.561755
101324.350254
101320.076953
101317.510555
101321.370350
101319.757254
101323.778413
101323.181506
101319.921312
101323.181506
101322.533500
101320.239121
101320.239121
101321.247706
101321.247706
101320.690711
101321.875110
101323.778413
101324.917319
101320.239121
101319.757254
101322.533500
101324.674470
101320.690711
101324.286713
101321.875110
101321.247706
101319.921312
101321.875110
101324.674470
101323.778413
101320.690711
101325.000000
101319.921312
101324.674470
101320.690711
101324.286713
101324.286713
101324.917319
101325.000000
101322.533500
101319.757254
101319.757254
101321.875110
101324.286713
101323.778413
101324.917319
101323.181506
101320.239121
101319.921312
101321.247706
101324.917319
101324.674470
101322.533500
101323.181506
101318.279672
101323.434128
101322.668993
101322.668993
101321.838357
101318.489968
101318.897346
101318.897346
101320.190184
101320.190184
101319.476209
101320.994411
101323.434128
101324.894016
101318.897346
101318.279672
101321.838357
101324.582725
101319.476209
101324.085685
101320.994411
101320.190184
101318.489968
101324.582725
101323.434128
101320.994411
101319.476209
101318.489968
101325.000000
101319.476209
101324.582725
101324.085685
101324.085685
101324.894016
101325.000000
101318.279672
101321.838357
101318.279672
101320.994411
101324.085685
101323.434128
101324.894016
101322.668993
101318.897346
101318.489968
101320.190184
101324.894016
101324.582725
101321.838357
101322.668993
101312.196722
101322.016769
101318.976575
101315.836548
101324.798085
101317.368726
101320.559067
101312.597369
101325.000000
101314.476312
101313.373487
101312.196722
101320.559067
101318.976575
101317.368726
101315.836548
101314.476312
101323.258087
101313.373487
101318.976575
101317.368726
101315.836548
101313.373487
101317.368726
101324.205026
101322.016769
101312.196722
101312.597369
101325.000000
101324.205026
101312.597369
101322.016769
101314.476312
101324.798085
101324.205026
101312.196722
101323.258087
101323.258087
101323.258087
101314.476312
101324.798085
101312.597369
101313.373487
101320.559067
101322.016769
101324.798085
101324.205026
101318.976575
101315.836548
101320.559067
101316.552020
101323.031576
101322.069742
101322.069742
101321.025567
101317.328484
101316.816378
101317.328484
101318.953684
101318.953684
101319.964661
101318.056160
101323.031576
101317.328484
101324.866770
101316.552020
101321.025567
101324.475453
101318.056160
101323.850635
101319.964661
101318.953684
101316.816378
101323.031576
101324.475453
101319.964661
101318.056160
101316.816378
101318.056160
101325.000000
101324.475453
101323.850635
101323.850635
101324.866770
101325.000000
101316.552020
101316.552020
101321.025567
101323.850635
101319.964661
101323.031576
101324.866770
101322.069742
101317.328484
101316.816378
101318.953684
101324.475453
101324.866770
101321.025567
101322.069742
101309.496757
101321.387663
101317.706350
101313.904151
101324.755505
101315.759437
101319.622560
101309.981892
101325.000000
101310.921679
101312.257068
101309.496757
101319.622560
101317.706350
101315.759437
101313.904151
101312.257068
101322.890751
101310.921679
101313.904151
101317.706350
101315.759437
101310.921679
101324.037381
101321.387663
101315.759437
101309.496757
101309.981892
101324.037381
101325.000000
101309.981892
101321.387663
101312.257068
101324.755505
101309.496757
101324.037381
101322.890751
101322.890751
101322.890751
101312.257068
101309.981892
101324.755505
101310.921679
101319.622560
101321.387663
101324.755505
101324.037381
101317.706350
101313.904151
101319.622560
101314.535664
101322.561755
101321.370350
101321.370350
101320.076953
101315.497454
101314.863119
101315.497454
101317.510555
101317.510555
101318.762830
101316.398811
101322.561755
101315.497454
101324.834971
101320.076953
101324.350254
101314.535664
101316.398811
101323.576305
101318.762830
101317.510555
101322.561755
101314.863119
101324.350254
101316.398811
101318.762830
101316.398811
101314.863119
101325.000000
101324.350254
101323.576305
101323.576305
101324.834971
101325.000000
101314.535664
101314.535664
101320.076953
101323.576305
101318.762830
101322.561755
101324.834971
101315.497454
101321.370350
101314.863119
101317.510555
101324.350254
101324.834971
101320.076952
101321.370350
101312.196722
101322.016769
101320.559067
101313.373487
101318.976575
101320.559067
101312.597369
101313.373487
101315.836548
101315.836548
101317.368726
101322.016769
101314.476312
101313.373487
101324.798085
101318.976575
101324.205026
101312.196722
101314.476312
101317.368726
101315.836548
101323.258087
101322.016769
101312.597369
101324.205026
101314.476312
101314.476312
101317.368726
101312.597369
101325.000000
101324.205026
101323.258087
101323.258087
101324.798085
101312.196722
101312.196722
101325.000000
101323.258087
101318.976575
101317.368726
101322.016769
101324.798085
101313.373487
101315.836548
101312.597369
101320.559067
101324.205026
101324.798085
101318.976575
101320.559067
101306.394805
101320.664892
101316.247007
101311.684049
101313.910548
101324.706585
101318.546620
101306.977008
101325.000000
101308.104831
101309.707410
101318.546620
101306.394805
101316.247007
101313.910548
101309.707410
101311.684049
101322.468724
101308.104831
101311.684049
101308.104831
101316.247007
101320.664892
101313.910548
101323.844776
101306.394805
101313.910548
101306.977008
101323.844776
101325.000000
101306.977008
101320.664892
101309.707410
101324.706585
101306.394805
101323.844776
101322.468724
101322.468724
101322.468724
101309.707410
101306.977008
101308.104831
101324.706585
101320.664892
101318.546620
101324.706585
101323.844776
101311.684049
101316.247007
101318.546620
101309.496757
101321.387663
101319.622560
101310.921679
101317.706350
101319.622560
101309.981892
101310.921679
101313.904151
101313.904151
101315.759437
101321.387663
101310.921679
101312.257068
101324.755505
101324.037381
101317.706350
101312.257068
101309.496757
101313.904151
101315.759437
101321.387663
101322.890751
101312.257068
101324.037381
101312.257068
101309.981892
101315.759437
101309.981892
101322.890751
101322.890751
101325.000000
101324.037381
101324.755505
101309.496757
101309.496757
101322.890751
101325.000000
101317.706350
101321.387663
101315.759437
101324.755505
101310.921679
101313.904151
101309.981892
101319.622560
101324.037381
101324.755505
101317.706350
101319.622560
101302.841754
101319.837012
101314.575440
101309.141090
101311.792785
101324.650551
101317.314212
101303.535140
101325.000000
101317.314212
101314.575440
101304.878345
101306.786970
101302.841754
101306.786970
101311.792785
101309.141089
101304.878345
101309.141089
101321.985324
101319.837012
101304.878345
101323.624162
101314.575440
101311.792785
101302.841754
101311.792785
101323.624162
101303.535140
101325.000000
101303.535140
101319.837012
101306.786970
101324.650551
101321.985324
101302.841754
101321.985324
101323.624162
101306.786970
101321.985324
101303.535140
101304.878345
101324.650551
101319.837012
101317.314212
101324.650551
101309.141089
101323.624162
101314.575440
101317.314212
101306.394805
101320.664892
101318.546620
101308.104831
101316.247007
101318.546620
101306.977008
101311.684049
101308.104831
101313.910548
101311.684049
101320.664892
101308.104831
101323.844776
101324.706585
101316.247007
101309.707410
101309.707410
101306.394805
101311.684049
101313.910548
101309.707410
101320.664892
101309.707410
101323.844776
101322.468724
101306.977008
101306.977008
101313.910548
101322.468724
101322.468724
101323.844776
101325.000000
101324.706585
101322.468724
101306.394805
101306.394805
101325.000000
101320.664892
101316.247007
101313.910548
101308.104831
101324.706585
101311.684049
101306.977008
101318.546620
101323.844776
101324.706585
101316.247007
101318.546620
101298.818156
101318.899493
101312.682500
101306.261354
101309.394557
101324.587097
101315.918590
101299.637450
101325.000000
101315.918590
101312.682500
101303.479763
101309.394557
101306.261354
101301.224561
101298.818156
101303.479763
101301.224561
101306.261354
101318.899493
101301.224561
101321.437905
101323.374331
101298.818155
101312.682500
101309.394557
101309.394557
101323.374331
101299.637450
101325.000000
101299.637450
101318.899492
101303.479763
101321.437905
101324.587097
101298.818155
101303.479763
101321.437905
101323.374331
101321.437905
101301.224561
101299.637450
101318.899492
101324.587097
101315.918590
101306.261354
101324.587097
101323.374331
101312.682500
101315.918590
101302.841754
101317.314212
101319.837012
101304.878345
101314.575440
101317.314212
101303.535140
101309.141089
101311.792785
101304.878345
101319.837012
101309.141089
101304.878345
101323.624162
101314.575440
101324.650551
101306.786970
101306.786970
101302.841754
101306.786970
101309.141089
101311.792785
101319.837012
101306.786970