# vtk DataFile Version 3.0
Time Step 108, Physical Time = 0.001080s, Residual = 3.40e-03
ASCII
DATASET UNSTRUCTURED_GRID
POINTS 5000 float
0.318712 0.385257 0.000000
-0.318712 0.385257 0.000000
-0.318712 -0.385257 0.000000
0.318712 -0.385257 0.000000
0.093691 0.491144 0.000000
-0.093691 0.491144 0.000000
-0.093691 -0.491144 0.000000
0.093691 -0.491144 0.000000
0.404508 0.293893 0.000000
-0.404508 0.293893 0.000000
-0.404508 -0.293893 0.000000
0.404508 -0.293893 0.000000
0.438153 0.240877 0.000000
-0.438153 0.240877 0.000000
-0.438153 -0.240877 0.000000
0.438153 -0.240877 0.000000
0.500000 0.000000 0.000000
-0.500000 -0.000000 0.000000
0.364484 0.342274 0.000000
-0.364484 0.342274 0.000000
-0.364484 -0.342274 0.000000
0.364484 -0.342274 0.000000
0.496057 0.062667 0.000000
-0.496057 0.062667 0.000000
-0.496057 -0.062667 0.000000
0.496057 -0.062667 0.000000
0.212890 0.452414 0.000000
-0.212890 0.452414 0.000000
-0.212890 -0.452414 0.000000
0.212890 -0.452414 0.000000
0.154508 0.475528 0.000000
-0.154508 0.475528 0.000000
-0.154508 -0.475528 0.000000
0.154508 -0.475528 0.000000
0.267913 0.422164 0.000000
-0.267913 0.422164 0.000000
-0.267913 -0.422164 0.000000
0.267913 -0.422164 0.000000
0.031395 0.499013 0.000000
-0.031395 0.499013 0.000000
-0.031395 -0.499013 0.000000
0.031395 -0.499013 0.000000
0.464888 0.184062 0.000000
-0.464888 0.184062 0.000000
-0.464888 -0.184062 0.000000
0.464888 -0.184062 0.000000
0.484292 0.124345 0.000000
-0.484292 0.124345 0.000000
-0.484292 -0.124345 0.000000
0.484292 -0.124345 0.000000
-0.031454 0.499951 0.000000
0.438977 0.241329 0.000000
-0.268417 0.422957 0.000000
0.365169 0.342917 0.000000
-0.496990 -0.062784 0.000000
0.319311 -0.385981 0.000000
0.405269 0.294445 0.000000
-0.093867 0.492067 0.000000
0.500940 -0.000000 0.000000
-0.213290 0.453264 0.000000
-0.154799 0.476422 0.000000
0.031454 0.499951 0.000000
0.465762 0.184408 0.000000
0.319311 0.385981 0.000000
0.365169 -0.342917 0.000000
0.405269 -0.294445 0.000000
-0.365169 0.342917 0.000000
-0.319311 0.385981 0.000000
0.268417 0.422957 0.000000
0.213290 0.453264 0.000000
-0.319311 -0.385981 0.000000
0.154799 -0.476422 0.000000
-0.485202 -0.124579 0.000000
0.154799 0.476422 0.000000
0.268417 -0.422957 0.000000
0.093867 0.492067 0.000000
-0.031454 -0.499951 0.000000
-0.500940 0.000000 0.000000
0.438977 -0.241329 0.000000
-0.438977 -0.241329 0.000000
0.093867 -0.492067 0.000000
-0.485202 0.124579 0.000000
0.485202 0.124579 0.000000
-0.496990 0.062784 0.000000
0.213290 -0.453264 0.000000
0.031454 -0.499951 0.000000
0.496990 -0.062784 0.000000
0.465762 -0.184408 0.000000
-0.465762 -0.184408 0.000000
-0.213290 -0.453264 0.000000
-0.093867 -0.492067 0.000000
-0.405269 -0.294445 0.000000
0.496990 0.062784 0.000000
0.485202 -0.124579 0.000000
-0.154799 -0.476422 0.000000
-0.365169 -0.342917 0.000000
-0.465762 0.184408 0.000000
-0.438977 0.241329 0.000000
-0.405269 0.294445 0.000000
-0.268417 -0.422957 0.000000
-0.031523 0.501039 0.000000
0.439932 0.241854 0.000000
-0.269001 0.423877 0.000000
0.365964 0.343663 0.000000
-0.498071 -0.062921 0.000000
0.320005 -0.386820 0.000000
0.406150 0.295085 0.000000
-0.094071 0.493137 0.000000
0.502029 -0.000000 0.000000
-0.213754 0.454250 0.000000
-0.155136 0.477458 0.000000
0.031523 0.501039 0.000000
0.466775 0.184809 0.000000
0.365964 -0.343663 0.000000
0.406150 -0.295085 0.000000
0.320005 0.386820 0.000000
-0.365964 0.343663 0.000000
-0.320005 0.386820 0.000000
0.269001 0.423877 0.000000
0.213754 0.454250 0.000000
-0.320005 -0.386820 0.000000
0.155136 -0.477458 0.000000
-0.486257 -0.124850 0.000000
0.155136 0.477458 0.000000
0.269001 -0.423877 0.000000
0.094071 0.493137 0.000000
-0.031523 -0.501039 0.000000
-0.502029 0.000000 0.000000
0.439932 -0.241854 0.000000
-0.439932 -0.241854 0.000000
0.094071 -0.493137 0.000000
-0.486257 0.124850 0.000000
0.486257 0.124850 0.000000
-0.498071 0.062921 0.000000
0.213754 -0.454250 0.000000
0.031523 -0.501039 0.000000
0.466775 -0.184809 0.000000
0.498071 -0.062921 0.000000
-0.466775 -0.184809 0.000000
-0.213754 -0.454250 0.000000
-0.094071 -0.493137 0.000000
-0.406150 -0.295085 0.000000
0.498071 0.062921 0.000000
-0.155136 -0.477458 0.000000
0.486257 -0.124850 0.000000
-0.365964 -0.343663 0.000000
-0.466775 0.184809 0.000000
-0.439932 0.241854 0.000000
-0.406150 0.295085 0.000000
-0.269001 -0.423877 0.000000
-0.031604 0.502329 0.000000
0.441064 0.242477 0.000000
-0.269693 0.424969 0.000000
0.366906 0.344547 0.000000
-0.499353 -0.063083 0.000000
0.320829 -0.387816 0.000000
0.407196 0.295845 0.000000
-0.094313 0.494407 0.000000
0.503322 -0.000000 0.000000
-0.214304 0.455419 0.000000
-0.155535 0.478688 0.000000
0.031604 0.502329 0.000000
0.467977 0.185285 0.000000
0.366906 -0.344547 0.000000
0.407196 -0.295845 0.000000
0.320829 0.387816 0.000000
0.269693 0.424969 0.000000
-0.366906 0.344547 0.000000
-0.320829 0.387816 0.000000
0.214304 0.455419 0.000000
-0.320829 -0.387816 0.000000
0.155535 -0.478688 0.000000
-0.487509 -0.125171 0.000000
0.155535 0.478688 0.000000
0.269693 -0.424969 0.000000
-0.031604 -0.502329 0.000000
0.094313 0.494407 0.000000
-0.503322 0.000000 0.000000
0.441064 -0.242477 0.000000
-0.441064 -0.242477 0.000000
-0.487509 0.125171 0.000000
0.094313 -0.494407 0.000000
0.487509 0.125171 0.000000
-0.499353 0.063083 0.000000
0.214304 -0.455419 0.000000
0.031604 -0.502329 0.000000
0.467977 -0.185285 0.000000
0.499353 -0.063083 0.000000
-0.467977 -0.185285 0.000000
-0.214304 -0.455419 0.000000
-0.094313 -0.494407 0.000000
-0.407196 -0.295845 0.000000
0.499353 0.063083 0.000000
-0.155535 -0.478688 0.000000
0.487509 -0.125171 0.000000
-0.467977 0.185285 0.000000
-0.366906 -0.344547 0.000000
-0.441064 0.242477 0.000000
-0.407196 0.295845 0.000000
-0.269693 -0.424969 0.000000
-0.031700 0.503862 0.000000
0.442411 0.243217 0.000000
-0.270517 0.426266 0.000000
0.368026 0.345599 0.000000
-0.500877 -0.063276 0.000000
0.321809 -0.389000 0.000000
0.408439 0.296748 0.000000
-0.094601 0.495916 0.000000
0.504858 -0.000000 0.000000
-0.214958 0.456810 0.000000
-0.156010 0.480149 0.000000
0.031700 0.503862 0.000000
0.469405 0.185851 0.000000
0.368026 -0.345599 0.000000
0.408439 -0.296748 0.000000
0.321809 0.389000 0.000000
0.270517 0.426266 0.000000
-0.368026 0.345599 0.000000
-0.321809 0.389000 0.000000
0.214958 0.456810 0.000000
-0.321809 -0.389000 0.000000
0.156010 -0.480149 0.000000
0.270517 -0.426266 0.000000
-0.488997 -0.125553 0.000000
0.156010 0.480149 0.000000
-0.031700 -0.503862 0.000000
0.094601 0.495916 0.000000
-0.504858 0.000000 0.000000
0.442411 -0.243217 0.000000
-0.442411 -0.243217 0.000000
-0.488997 0.125553 0.000000
0.094601 -0.495916 0.000000
0.488997 0.125553 0.000000
-0.500877 0.063276 0.000000
0.214958 -0.456810 0.000000
0.031700 -0.503862 0.000000
0.469405 -0.185851 0.000000
0.500877 -0.063276 0.000000
-0.469405 -0.185851 0.000000
-0.214958 -0.456810 0.000000
-0.094601 -0.495916 0.000000
-0.408439 -0.296748 0.000000
-0.469405 0.185851 0.000000
0.500877 0.063276 0.000000
-0.156010 -0.480149 0.000000
0.488997 -0.125553 0.000000
-0.368026 -0.345599 0.000000
-0.442411 0.243217 0.000000
-0.408439 0.296748 0.000000
-0.270517 -0.426266 0.000000
-0.031815 0.505686 0.000000
0.444012 0.244098 0.000000
-0.271496 0.427809 0.000000
0.369358 0.346850 0.000000
-0.502691 -0.063505 0.000000
0.322974 -0.390408 0.000000
0.409918 0.297823 0.000000
-0.094943 0.497711 0.000000
0.506686 -0.000000 0.000000
-0.215736 0.458463 0.000000
-0.156575 0.481887 0.000000
0.031815 0.505686 0.000000
0.369358 -0.346850 0.000000
0.409918 -0.297823 0.000000
0.471105 0.186524 0.000000
0.322974 0.390408 0.000000
0.271496 0.427809 0.000000
-0.369358 0.346850 0.000000
-0.322974 0.390408 0.000000
0.215736 0.458463 0.000000
0.156575 -0.481887 0.000000
-0.322974 -0.390408 0.000000
0.271496 -0.427809 0.000000
-0.490768 -0.126008 0.000000
0.156575 0.481887 0.000000
-0.031815 -0.505686 0.000000
0.094943 0.497711 0.000000
-0.506686 0.000000 0.000000
0.444012 -0.244098 0.000000
-0.490768 0.126008 0.000000
-0.444012 -0.244098 0.000000
0.094943 -0.497711 0.000000
0.490768 0.126008 0.000000
-0.502691 0.063505 0.000000
0.215736 -0.458463 0.000000
0.031815 -0.505686 0.000000
0.471105 -0.186524 0.000000
-0.471105 -0.186524 0.000000
0.502691 -0.063505 0.000000
-0.215736 -0.458463 0.000000
-0.094943 -0.497711 0.000000
-0.409918 -0.297823 0.000000
-0.471105 0.186524 0.000000
0.502691 0.063505 0.000000
-0.156575 -0.481887 0.000000
0.490768 -0.126008 0.000000
-0.369358 -0.346850 0.000000
-0.444012 0.244098 0.000000
-0.409918 0.297823 0.000000
-0.271496 -0.427809 0.000000
-0.031952 0.507855 0.000000
0.445917 0.245145 0.000000
-0.272661 0.429644 0.000000
0.370943 0.348338 0.000000
-0.504847 -0.063777 0.000000
0.324359 -0.392083 0.000000
0.411676 0.299100 0.000000
-0.095351 0.499846 0.000000
0.508859 -0.000000 0.000000
-0.216662 0.460430 0.000000
-0.157246 0.483954 0.000000
0.031952 0.507855 0.000000
0.370943 -0.348338 0.000000
0.411676 -0.299100 0.000000
0.324359 0.392083 0.000000
0.473126 0.187324 0.000000
0.272661 0.429644 0.000000
-0.370943 0.348338 0.000000
-0.324359 0.392083 0.000000
0.216662 0.460430 0.000000
0.157246 -0.483954 0.000000
-0.324359 -0.392083 0.000000
0.272661 -0.429644 0.000000
0.157246 0.483954 0.000000
-0.492873 -0.126548 0.000000
-0.031952 -0.507855 0.000000
0.095351 0.499846 0.000000
0.445917 -0.245145 0.000000
-0.508859 0.000000 0.000000
-0.492873 0.126548 0.000000
-0.445917 -0.245145 0.000000
0.095351 -0.499846 0.000000
-0.504847 0.063777 0.000000
0.216662 -0.460430 0.000000
0.492873 0.126548 0.000000
0.031952 -0.507855 0.000000
0.473126 -0.187324 0.000000
-0.473126 -0.187324 0.000000
0.504847 -0.063777 0.000000
-0.216662 -0.460430 0.000000
-0.095351 -0.499846 0.000000
-0.473126 0.187324 0.000000
-0.411676 -0.299100 0.000000
-0.157246 -0.483954 0.000000
0.504847 0.063777 0.000000
0.492873 -0.126548 0.000000
-0.370943 -0.348338 0.000000
-0.445917 0.245145 0.000000
-0.411676 0.299100 0.000000
-0.272661 -0.429644 0.000000
0.318712 0.385257 0.100000
-0.318712 0.385257 0.100000
[...]
POINT_DATA 5000
SCALARS pressure float 1
LOOKUP_TABLE default
101767.337439
101767.337439
101767.337439
101767.337439
101767.337439
101767.337439
101767.337439
101767.337439
101767.337439
101767.337439
101767.337439
101767.337439
101767.337439
101767.337439
101767.337439
101767.337439
101325.000000
101325.000000
101325.000000
101325.000000
101325.000000
101325.000000
101325.000000
101325.000000
101325.000000
101325.000000
101325.000000
101325.000000
101325.000000
101325.000000
101325.000000
101325.000000
101325.000000
101325.000000
101325.000000
101325.000000
101325.000000
101325.000000
101325.000000
101325.000000
101325.000000
101325.000000
101325.000000
101325.000000
101325.000000
101325.000000
101325.000000
101325.000000
101325.000000
101325.000000
101323.678972
101324.692193
101324.054525
101324.378510
101324.979167
101324.212614
101324.541789
101323.720310
101325.000000
101323.914177
101323.800389
101323.678972
101324.820271
101324.212614
101324.378510
101324.541789
101324.378510
101324.212614
101324.054525
101323.914177
101324.212614
101323.800389
101324.917975
101323.800389
101324.054525
101323.720310
101323.678972
101325.000000
101324.692193
101324.692193
101323.720310
101324.917975
101324.917975
101324.979167
101323.914177
101323.678972
101324.979167
101324.820271
101324.820271
101323.914177
101323.720310
101324.541789
101324.979167
101324.917975
101323.800389
101324.378510
101324.820271
101324.692193
101324.541789
101324.054525
101322.156416
101324.337430
101322.964815
101323.662209
101324.955155
101323.305109
101324.013677
101322.245399
101325.000000
101322.662709
101322.417774
101322.156416
101324.613125
101323.662209
101324.013677
101323.305109
101323.662209
101323.305109
101322.964815
101322.662709
101323.305109
101322.417774
101324.823438
101322.417774
101322.964815
101322.245399
101322.156416
101325.000000
101324.337430
101324.337430
101322.245399
101324.823438
101324.823438
101324.955155
101322.662709
101322.156416
101324.613125
101324.955155
101324.613125
101322.662709
101322.245399
101324.013677
101324.955155
101322.417774
101324.823438
101323.662209
101324.613125
101324.337430
101324.013677
101322.964815
101320.362823
101323.919513
101321.681120
101322.818396
101324.926869
101322.236054
101323.391553
101320.507932
101325.000000
101321.188460
101320.789032
101320.362823
101324.369102
101322.818396
101323.391553
101322.236054
101321.681120
101322.818396
101322.236054
101321.188460
101322.236054
101320.789032
101324.712071
101320.789032
101321.681120
101320.362823
101320.507932
101325.000000
101323.919513
101323.919513
101324.712071
101320.507932
101324.712071
101324.926869
101321.188460
101320.362823
101324.369102
101324.926869
101324.369102
101321.188460
101320.507932
101323.391553
101324.926869
101320.789032
101324.712071
101324.369102
101322.818396
101323.919513
101323.391553
101321.681120
101318.248705
101323.426913
101320.168021
101321.823788
101324.893528
101320.975954
101322.658252
101318.459969
101325.000000
101319.450755
101318.869224
101318.248705
101324.081472
101321.823788
101322.658252
101320.975954
101320.168021
101321.823788
101320.975954
101319.450755
101320.975954
101318.869224
101320.168021
101324.580802
101318.869224
101318.248705
101318.459969
101325.000000
101323.426913
101323.426913
101324.580802
101318.459969
101324.580802
101324.893528
101319.450755
101318.248705
101324.081472
101324.893528
101324.081472
101319.450755
101318.459969
101322.658252
101324.081472
101324.893528
101318.869224
101324.580802
101321.823788
101323.426913
101322.658252
101320.168021
101315.759110
101322.846824
101318.386190
101320.652535
101324.854266
101319.492054
101321.794714
101316.048281
101325.000000
101317.404426
101316.608452
101315.759110
101320.652535
101321.794714
101323.742758
101319.492054
101318.386190
101320.652535
101319.492054
101317.404426
101316.608452
101319.492054
101318.386190
101324.426220
101316.608452
101315.759110
101316.048281
101325.000000
101322.846824
101324.426220
101322.846824
101316.048281
101324.426220
101324.854266
101317.404426
101315.759110
101323.742758
101323.742758
101324.854266
101317.404426
101316.048281
101321.794714
101323.742758
101324.854266
101316.608452
101324.426220
101320.652535
101322.846824
101321.794714
101318.386189
101312.833358
101322.165108
101316.292195
101319.276087
101324.808125
101317.748187
101320.779890
101313.214083
101325.000000
101314.999596
101313.951609
101312.833358
101319.276087
101320.779890
101317.748187
101323.344703
101316.292195
101319.276087
101317.748187
101314.999596
101313.951609
101317.748187
101316.292195
101313.951609
101324.244555
101312.833358
101313.214083
101322.165108
101325.000000
101324.244555
101322.165108
101313.214083
101324.808125
101314.999596
101324.244555
101312.833358
101323.344703
101323.344703
101324.808125
101314.999596
101313.214083
101323.344703
101320.779890
101313.951609
101324.808125
101324.244555
101319.276087
101322.165108
101320.779890
101316.292195
101767.337439
101767.337439
101767.337439
101767.337439
101767.337439
101767.337439
101767.337439
101767.337439
101767.337439
101767.337439
101767.337439
101767.337439
101767.337439
101767.337439
101767.337439
101767.337439
101325.000000
101325.000000
101325.000000
101325.000000
101325.000000
101325.000000
101325.000000
101325.000000
101325.000000
101325.000000
101325.000000
101325.000000
101325.000000
101325.000000
101325.000000
101325.000000
101325.000000
101325.000000
101325.000000
101325.000000
101325.000000
101325.000000
101325.000000
101325.000000
101325.000000
101325.000000
101325.000000
101325.000000
101325.000000
101325.000000
101325.000000
101325.000000
101325.000000
101325.000000
101323.678972
101324.692193
101323.720310
101324.541789
101324.541789
101323.800389
101324.378510
101323.800389
101324.054525
101323.914177
101324.054525
101324.212614
101324.692193
101323.678972
101324.979167
101323.800389
101324.378510
101324.820271
101324.917975
101323.914177
101324.212614
101323.720310
101324.212614
101324.054525
101324.917975
101324.692193
101325.000000
101323.914177
101324.917975
101323.720310
101323.914177
101324.820271
101324.820271
101325.000000
101324.979167
101324.378510
101323.678972
101323.678972
101324.212614
101324.979167
101324.692193
101324.820271
101324.541789
101324.979167
101323.800389
101323.720310
101324.054525
101324.917975
101324.378510
101324.541789
101309.404391
101321.366141
101317.662896
101313.838044
101324.754048
101315.704383
101319.590522
101309.892416
101325.000000
101312.181147
101310.837802
101309.404391
101317.662896
101319.590522
101315.704383
101322.878185
101313.838044
101312.181147
101317.662896
101315.704383
101310.837802
101315.704383
101313.838044
101310.837802
101324.031646
101309.404391
101309.892416
101321.366141
101325.000000
101324.031646
101321.366141
101309.892416
101312.181147
101324.754048
101324.031646
101309.404391
101322.878185
101322.878185
101324.754048
101312.181147
101322.878185
101309.892416
101319.590522
101310.837802
101324.754048
101324.031646
101317.662896
101321.366141
101319.590522
101313.838044
101322.156416
101324.337430
101322.245399
101324.013677
101324.013677
101323.662209
101322.417774
101322.417774
101322.964815
101322.662709
101322.964815
101323.305109
101324.337430
101322.156416
101324.955155
101322.417774
101323.662209
101324.613125
101324.823438
101322.662709
101323.305109
101322.245399
101323.305109
101322.964815
101324.823438
101324.337430
101322.662709
101325.000000
101324.823438
101322.245399
101322.662709
101324.613125
101324.613125
101324.955155
101325.000000
101323.662209
101322.156416
101322.156416
101323.305109
101324.955155
101324.337430
101324.613125
101324.013677
101324.955155
101322.417774
101322.245399
101322.964815
101324.823438
101323.662209
101324.013677
101320.362823
101323.919513
101320.507932
101323.391553
101323.391553
101322.818396
101320.789032
101320.789032
101321.681120
101321.188460
101321.681120
101322.236054
101323.919513
101324.926869
101320.362823
101320.789032
101322.818396
101324.712071
101324.369102
101321.188460
101322.236054
101320.507932
101322.236054
101321.681120
101324.712071
101323.919513
101321.188460
101325.000000
101324.712071
101320.507932
101321.188460
101324.369102
101324.369102
101324.926869
101325.000000
101322.818396
101320.362823
101320.362823
101322.236054
101324.926869
101323.919513
101324.369102
101323.391553
101324.926869
101320.789032
101320.507932
101321.681120
101324.712071
101322.818396
101323.391553
101305.395095
101320.431954
101315.776684
101310.968545
101324.690819
101313.314680
101318.199861
101306.008581
101325.000000
101308.885696
101307.197005
101305.395094
101318.199861
101315.776684
101313.314680
101322.332712
101310.968545
101308.885696
101315.776684
101313.314680
101307.197005
101310.968545
101313.314680
101307.197005
101323.782703
101305.395094
101320.431954
101306.008581
101325.000000
101323.782703
101320.431954
101306.008581
101308.885696
101324.690819
101323.782703
101305.395094
101322.332712
101322.332712
101324.690819
101308.885696
101322.332712
101306.008581
101318.199861
101307.197005
101324.690819
101320.431954
101323.782703
101315.776684
101310.968545
101318.199861
101318.248705
101323.426913
101318.459969
101322.658252
101322.658252
101321.823788
101318.869224
101318.869224
101320.168021
101320.168021
101319.450755
101320.975954
101323.426913
101324.893528
101318.248705
101318.869224
101321.823788
101324.580802
101324.081472
101319.450755
101320.975954
101318.459969
101320.975954
101320.168021
101324.580802
101323.426913
101319.450755
101325.000000
101324.580802
101318.459969
101319.450755
101324.081472
101324.081472
101324.893528
101325.000000
101321.823788
101318.248705
101318.248705
101320.975954
101324.893528
101323.426913
101324.081472
101322.658252
101324.893528
101318.869224
101318.459969
101320.168021
101324.580802
101321.823788
101322.658252
101315.759110
101322.846824
101321.794714
101316.048281
101321.794714
101320.652535
101316.608452
101316.608452
101318.386190
101318.386190
101317.404426
101319.492054
101322.846824
101324.854266
101316.608452
101315.759110
101320.652535
101324.426220
101317.404426
101323.742758
101319.492054
101316.048281
101318.386190
101319.492054
101324.426220
101322.846824
101317.404426
101325.000000
101316.048281
101324.426220
101317.404426
101323.742758
101323.742758
101324.854266
101325.000000
101320.652535
101315.759110
101315.759110
101319.492054
101324.854266
101322.846824
101323.742758
101321.794714
101316.608452
101316.048281
101324.854266
101318.386190
101324.426220
101320.652535
101321.794714
101300.715813
101319.341657
101313.575271
101307.619529
101324.617024
101310.525638
101316.576810
101301.475725
101325.000000
101305.039547
101302.947802
101300.715813
101316.576810
101313.575271
101310.525638
101307.619529
101321.696086
101305.039547
101313.575271
101310.525638
101302.947802
101307.619529
101310.525638
101302.947802
101323.492159
101300.715813
101319.341657
101301.475725
101325.000000
101323.492159
101301.475725
101319.341657
101305.039547
101324.617024
101323.492159
101300.715813
101321.696086
101321.696086
101321.696085
101305.039547
101324.617024
101301.475725
101302.947802
101316.576810
101324.617024
101319.341657
101323.492159
101313.575271
101307.619529
101316.576810
101312.833358
101322.165108
101320.779890
101313.214083
101320.779890
101319.276087
101313.951609
101313.951609
101316.292195
101316.292195
101314.999596
101317.748187
101322.165108
101324.808125
101313.951609
101312.833358
101319.276087
101324.244555
101314.999596
101323.344703
101317.748187
101316.292195
101313.214083
101317.748187
101324.244555
101322.165108
101314.999596
101325.000000
101313.214083
101324.244555
101314.999596
101323.344703
101323.344703
101324.808125
101325.000000
101319.276087
101312.833358
101312.833358
101317.748187
101323.344703
101322.165108
101324.808125
101320.779890
101313.951609
101313.214083
101316.292195
101324.808125
101324.244555
101319.276087
101320.779890
101309.404391
101321.366141
101319.590522
101319.590522
101317.662896
101309.892416
101310.837802
101310.837802
101313.838044
101313.838044
101312.181147
101315.704383
101321.366141
101324.754048
101310.837802
101309.404391
101317.662896
101324.031646
101312.181147
101322.878185
101315.704383
101313.838044
101309.892416
101324.031646
101321.366141
101315.704383
101312.181147
101309.892416
101325.000000
101312.181147
101324.031646
101322.878185
101322.878185
101324.754048
101325.000000
101309.404391
101317.662896
101309.404391
101315.704383
101322.878185
101321.366141
101324.754048
101319.590522
101310.837802
101309.892416
101313.838044
101324.754048
101324.031646
101317.662896
101319.590522
101295.287921
101318.076929
101311.021667
101303.734725
101324.531423
101307.290393
101314.694097
101296.217686
101325.000000
101300.578077
101298.018795
101295.287921
101314.694097
101311.021667
101307.290393
101303.734725
101300.578077
101320.957609
101298.018795
101311.021667
101307.290393
101303.734725
101298.018795
101307.290393
101323.155133
101318.076929
101295.287921
101296.217686
101325.000000
101323.155133
101296.217686
101318.076929
101300.578077
101324.531423
101323.155133
101295.287921
101320.957609
101320.957609
101320.957609
101300.578077
101324.531423
101296.217686
101298.018794
101314.694097
101318.076929
101324.531423
101323.155133
101311.021667
101303.734725
101314.694097
101305.395094
101320.431954
101318.199861
101318.199861
101315.776684
101307.197005
101306.008581
101307.197005
101310.968545
101310.968545
101313.314680
101308.885696
101320.431954
101307.197005
101324.690819
101305.395094
101315.776684
101323.782703
101308.885696
101322.332712
101313.314680
101310.968545
101306.008581
101320.431954
101323.782703
101313.314680
101308.885696
101306.008581
101308.885696
101325.000000
101323.782703
101322.332712
101322.332712
101324.690819
101325.000000
101305.395094
101305.395094
101315.776684
101322.332712
101313.314680
101320.431954
101324.690819
101318.199861
101307.197005
101306.008581
101310.968545
101323.782703
101324.690819
101315.776684
101318.199861
101289.022213
101316.616986
101308.073905
101299.250286
101324.432609
101303.555777
101312.520779
101290.148048
101325.000000
101292.328976
101295.427962
101289.022213
101312.520779
101308.073905
101303.555777
101299.250286
101295.427962
101320.105147
101292.328976
101299.250286
101308.073905
101303.555777
101292.328976
101322.766087
101316.616986
101303.555777
101289.022213
101290.148048
101322.766087
101325.000000
101290.148048
101316.616986
101295.427962
101324.432609
101289.022213
101322.766087
101320.105147
101320.105147
101320.105147
101295.427962
101290.148048
101324.432609
101292.328976
101312.520779
101316.616986
101324.432609
101322.766087
101308.073905
101299.250286
101312.520779
101300.715813
101319.341657
101316.576810
101316.576810
101313.575271
101302.947802
101301.475725
101302.947802
101307.619529
101307.619529
101310.525638
101305.039547
101319.341657
101302.947802
101324.617024
101313.575271
101323.492159
101300.715813
101305.039547
101321.696086
101310.525638
101307.619529
101319.341657
101301.475725
101323.492159
101305.039547
101310.525638
101305.039547
101301.475725
101325.000000
101323.492159
101321.696086
101321.696086
101324.617024
101325.000000
101300.715813
101300.715813
101313.575271
101321.696086
101310.525637
101319.341657
101324.617024
101302.947802
101316.576810
101301.475725
101307.619529
101323.492159
101324.617024
101313.575271
101316.576810
101295.287921
101318.076929
101314.694097
101298.018795
101311.021667
101314.694097
101296.217686
101298.018795
101303.734725
101303.734725
101307.290393
101318.076929
101300.578077
101298.018795
101324.531423
101311.021667
101323.155133
101295.287921
101300.578077
101307.290393
101303.734725
101320.957609
101318.076929
101296.217686
101323.155133
101300.578077
101300.578077
101307.290393
101296.217686
101325.000000
101323.155133
101320.957609
101320.957609
101324.531423
101295.287921
101295.287921
101325.000000
101320.957609
101311.021667
101307.290393
101318.076929
101324.531423
101298.018794
101303.734725
101296.217686
101314.694097
101323.155133
101324.531423
101311.021667
101314.694097
101281.823632
101314.939679
101304.687263
101294.098179
101299.265130
101324.319083
101310.023886
101283.174727
101325.000000
101285.792024
101289.511069
101310.023886
101281.823631
101304.687263
101299.265130
101289.511069
101294.098179
101319.125765
101285.792024
101294.098179
101285.792024
101304.687263
101314.939679
101299.265130
101322.319116
101281.823631
101299.265130
101283.174727
101322.319116
101325.000000
101283.174727
101314.939679
101289.511069
101324.319083
101281.823631
101322.319116
101319.125765
101319.125765
101319.125765
101289.511069
101283.174727
101285.792024
101324.319083
101314.939679
101310.023886
101324.319083
101322.319116
101294.098179
101304.687263
101310.023886
101289.022213
101316.616986
101312.520779
101292.328976
101308.073905
101312.520779
101290.148048
101292.328976
101299.250286
101299.250286
101303.555777
101316.616986
101292.328976
101295.427962
101324.432609
101322.766087
101308.073905
101295.427962
101289.022213
101299.250286
101303.555777
101316.616986
101320.105147
101295.427962
101322.766087
101295.427962
101290.148048
101303.555777
101290.148048
101320.105147
101320.105147
101325.000000
101322.766087
101324.432609
101289.022213
101289.022213
101320.105147
101325.000000
101308.073905
101316.616986
101303.555777
101324.432609
101292.328976
101299.250286
101290.148048
101312.520779
101322.766087
101324.432609
101308.073905
101312.520779
101273.578201
101313.018450
101300.808121
101288.196830
101294.350518
101324.189048
101307.163884
101275.187317
101325.000000
101307.163884
101300.808121
101278.304441
101282.733715
101273.578201
101282.733715
101294.350518
101288.196830
101278.304441
101288.196830
101318.003957
101313.018450
101278.304441
101321.807145
101300.808121
101294.350518
101273.578201
101294.350518
101321.807145
101275.187316
101325.000000
101275.187316
101313.018450
101282.733715
101324.189048
101318.003957
101273.578201
101318.003957
101321.807145
101282.733715
101318.003957
101275.187316
101278.304441
101324.189048
101313.018450
101307.163884
101324.189048
101288.196830
101321.807145
101300.808121
101307.163884
101281.823632
101314.939679
101310.023886
101285.792025
101304.687263
101310.023886
101283.174727
101294.098179
101285.792025
101299.265130
101294.098179
101314.939679
101285.792024
101322.319116
101324.319083
101304.687263
101289.511069
101289.511069
101281.823631
101294.098179
101299.265130
101289.511069
101314.939679
101289.511069
101322.319116
101319.125765
101283.174727
101283.174727
101299.265130
101319.125765
101319.125765
101322.319116
101325.000000
101324.319083
101319.125765
101281.823631
101281.823631
101325.000000
101314.939679
101304.687263
101299.265130
101285.792024
101324.319083
101294.098179
101283.174727
101310.023886
101322.319116
101324.319083
101304.687263
101310.023886
101264.240790
101310.842784
101296.415246
101281.513938
101288.785042
101324.041791
101303.925118
101266.142096
101325.000000
101303.925118
101296.415246
101275.058805
101288.785042
101281.513938
101269.825243
101264.240790
101275.058805
101269.825243
101281.513938
101310.842784
101269.825243
101316.733582
101321.227372
101264.240790
101296.415246
101288.785042
101288.785042
101321.227372
101266.142096
101325.000000
101266.142096
101310.842784
101275.058805
101316.733582
101324.041791
101264.240790
101275.058805
101316.733582
101321.227372
101316.733582
101269.825243
101266.142096
101310.842784
101324.041791
101303.925118
101281.513938
101324.041791
101321.227372
101296.415246
101303.925118
101273.578201
101307.163884
101313.018450
101278.304441
101300.808121
101307.163884
101275.187317
101288.196830
101294.350518
101278.304441
101313.018450
101288.196830
101278.304441
101321.807145
101300.808121
101324.189048
101282.733715
101282.733715
101273.578201
101282.733715
101288.196830
101294.350518
101313.018450
101282.733715