# vtk DataFile Version 3.0
Time Step 68, Physical Time = 0.000680s, Residual = 3.14e+01
ASCII
DATASET UNSTRUCTURED_GRID
POINTS 5000 float
0.318712 0.385257 0.000000
-0.318712 0.385257 0.000000
-0.318712 -0.385257 0.000000
0.318712 -0.385257 0.000000
0.093691 0.491144 0.000000
-0.093691 0.491144 0.000000
-0.093691 -0.491144 0.000000
0.093691 -0.491144 0.000000
0.404508 0.293893 0.000000
-0.404508 0.293893 0.000000
-0.404508 -0.293893 0.000000
0.404508 -0.293893 0.000000
0.438153 0.240877 0.000000
-0.438153 0.240877 0.000000
-0.438153 -0.240877 0.000000
0.438153 -0.240877 0.000000
0.500000 0.000000 0.000000
-0.500000 -0.000000 0.000000
0.364484 0.342274 0.000000
-0.364484 0.342274 0.000000
-0.364484 -0.342274 0.000000
0.364484 -0.342274 0.000000
0.496057 0.062667 0.000000
-0.496057 0.062667 0.000000
-0.496057 -0.062667 0.000000
0.496057 -0.062667 0.000000
0.212890 0.452414 0.000000
-0.212890 0.452414 0.000000
-0.212890 -0.452414 0.000000
0.212890 -0.452414 0.000000
0.154508 0.475528 0.000000
-0.154508 0.475528 0.000000
-0.154508 -0.475528 0.000000
0.154508 -0.475528 0.000000
0.267913 0.422164 0.000000
-0.267913 0.422164 0.000000
-0.267913 -0.422164 0.000000
0.267913 -0.422164 0.000000
0.031395 0.499013 0.000000
-0.031395 0.499013 0.000000
-0.031395 -0.499013 0.000000
0.031395 -0.499013 0.000000
0.464888 0.184062 0.000000
-0.464888 0.184062 0.000000
-0.464888 -0.184062 0.000000
0.464888 -0.184062 0.000000
0.484292 0.124345 0.000000
-0.484292 0.124345 0.000000
-0.484292 -0.124345 0.000000
0.484292 -0.124345 0.000000
-0.031454 0.499951 0.000000
0.438977 0.241329 0.000000
-0.268417 0.422957 0.000000
0.365169 0.342917 0.000000
-0.496990 -0.062784 0.000000
0.319311 -0.385981 0.000000
0.405269 0.294445 0.000000
-0.093867 0.492067 0.000000
0.500940 -0.000000 0.000000
-0.213290 0.453264 0.000000
-0.154799 0.476422 0.000000
0.031454 0.499951 0.000000
0.465762 0.184408 0.000000
0.319311 0.385981 0.000000
0.365169 -0.342917 0.000000
0.405269 -0.294445 0.000000
-0.365169 0.342917 0.000000
-0.319311 0.385981 0.000000
0.268417 0.422957 0.000000
0.213290 0.453264 0.000000
-0.319311 -0.385981 0.000000
0.154799 -0.476422 0.000000
-0.485202 -0.124579 0.000000
0.154799 0.476422 0.000000
0.268417 -0.422957 0.000000
0.093867 0.492067 0.000000
-0.031454 -0.499951 0.000000
-0.500940 0.000000 0.000000
0.438977 -0.241329 0.000000
-0.438977 -0.241329 0.000000
0.093867 -0.492067 0.000000
-0.485202 0.124579 0.000000
0.485202 0.124579 0.000000
-0.496990 0.062784 0.000000
0.213290 -0.453264 0.000000
0.031454 -0.499951 0.000000
0.496990 -0.062784 0.000000
0.465762 -0.184408 0.000000
-0.465762 -0.184408 0.000000
-0.213290 -0.453264 0.000000
-0.093867 -0.492067 0.000000
-0.405269 -0.294445 0.000000
0.496990 0.062784 0.000000
0.485202 -0.124579 0.000000
-0.154799 -0.476422 0.000000
-0.365169 -0.342917 0.000000
-0.465762 0.184408 0.000000
-0.438977 0.241329 0.000000
-0.405269 0.294445 0.000000
-0.268417 -0.422957 0.000000
-0.031523 0.501039 0.000000
0.439932 0.241854 0.000000
-0.269001 0.423877 0.000000
0.365964 0.343663 0.000000
-0.498071 -0.062921 0.000000
0.320005 -0.386820 0.000000
0.406150 0.295085 0.000000
-0.094071 0.493137 0.000000
0.502029 -0.000000 0.000000
-0.213754 0.454250 0.000000
-0.155136 0.477458 0.000000
0.031523 0.501039 0.000000
0.466775 0.184809 0.000000
0.365964 -0.343663 0.000000
0.406150 -0.295085 0.000000
0.320005 0.386820 0.000000
-0.365964 0.343663 0.000000
-0.320005 0.386820 0.000000
0.269001 0.423877 0.000000
0.213754 0.454250 0.000000
-0.320005 -0.386820 0.000000
0.155136 -0.477458 0.000000
-0.486257 -0.124850 0.000000
0.155136 0.477458 0.000000
0.269001 -0.423877 0.000000
0.094071 0.493137 0.000000
-0.031523 -0.501039 0.000000
-0.502029 0.000000 0.000000
0.439932 -0.241854 0.000000
-0.439932 -0.241854 0.000000
0.094071 -0.493137 0.000000
-0.486257 0.124850 0.000000
0.486257 0.124850 0.000000
-0.498071 0.062921 0.000000
0.213754 -0.454250 0.000000
0.031523 -0.501039 0.000000
0.466775 -0.184809 0.000000
0.498071 -0.062921 0.000000
-0.466775 -0.184809 0.000000
-0.213754 -0.454250 0.000000
-0.094071 -0.493137 0.000000
-0.406150 -0.295085 0.000000
0.498071 0.062921 0.000000
-0.155136 -0.477458 0.000000
0.486257 -0.124850 0.000000
-0.365964 -0.343663 0.000000
-0.466775 0.184809 0.000000
-0.439932 0.241854 0.000000
-0.406150 0.295085 0.000000
-0.269001 -0.423877 0.000000
-0.031604 0.502329 0.000000
0.441064 0.242477 0.000000
-0.269693 0.424969 0.000000
0.366906 0.344547 0.000000
-0.499353 -0.063083 0.000000
0.320829 -0.387816 0.000000
0.407196 0.295845 0.000000
-0.094313 0.494407 0.000000
0.503322 -0.000000 0.000000
-0.214304 0.455419 0.000000
-0.155535 0.478688 0.000000
0.031604 0.502329 0.000000
0.467977 0.185285 0.000000
0.366906 -0.344547 0.000000
0.407196 -0.295845 0.000000
0.320829 0.387816 0.000000
0.269693 0.424969 0.000000
-0.366906 0.344547 0.000000
-0.320829 0.387816 0.000000
0.214304 0.455419 0.000000
-0.320829 -0.387816 0.000000
0.155535 -0.478688 0.000000
-0.487509 -0.125171 0.000000
0.155535 0.478688 0.000000
0.269693 -0.424969 0.000000
-0.031604 -0.502329 0.000000
0.094313 0.494407 0.000000
-0.503322 0.000000 0.000000
0.441064 -0.242477 0.000000
-0.441064 -0.242477 0.000000
-0.487509 0.125171 0.000000
0.094313 -0.494407 0.000000
0.487509 0.125171 0.000000
-0.499353 0.063083 0.000000
0.214304 -0.455419 0.000000
0.031604 -0.502329 0.000000
0.467977 -0.185285 0.000000
0.499353 -0.063083 0.000000
-0.467977 -0.185285 0.000000
-0.214304 -0.455419 0.000000
-0.094313 -0.494407 0.000000
-0.407196 -0.295845 0.000000
0.499353 0.063083 0.000000
-0.155535 -0.478688 0.000000
0.487509 -0.125171 0.000000
-0.467977 0.185285 0.000000
-0.366906 -0.344547 0.000000
-0.441064 0.242477 0.000000
-0.407196 0.295845 0.000000
-0.269693 -0.424969 0.000000
-0.031700 0.503862 0.000000
0.442411 0.243217 0.000000
-0.270517 0.426266 0.000000
0.368026 0.345599 0.000000
-0.500877 -0.063276 0.000000
0.321809 -0.389000 0.000000
0.408439 0.296748 0.000000
-0.094601 0.495916 0.000000
0.504858 -0.000000 0.000000
-0.214958 0.456810 0.000000
-0.156010 0.480149 0.000000
0.031700 0.503862 0.000000
0.469405 0.185851 0.000000
0.368026 -0.345599 0.000000
0.408439 -0.296748 0.000000
0.321809 0.389000 0.000000
0.270517 0.426266 0.000000
-0.368026 0.345599 0.000000
-0.321809 0.389000 0.000000
0.214958 0.456810 0.000000
-0.321809 -0.389000 0.000000
0.156010 -0.480149 0.000000
0.270517 -0.426266 0.000000
-0.488997 -0.125553 0.000000
0.156010 0.480149 0.000000
-0.031700 -0.503862 0.000000
0.094601 0.495916 0.000000
-0.504858 0.000000 0.000000
0.442411 -0.243217 0.000000
-0.442411 -0.243217 0.000000
-0.488997 0.125553 0.000000
0.094601 -0.495916 0.000000
0.488997 0.125553 0.000000
-0.500877 0.063276 0.000000
0.214958 -0.456810 0.000000
0.031700 -0.503862 0.000000
0.469405 -0.185851 0.000000
0.500877 -0.063276 0.000000
-0.469405 -0.185851 0.000000
-0.214958 -0.456810 0.000000
-0.094601 -0.495916 0.000000
-0.408439 -0.296748 0.000000
-0.469405 0.185851 0.000000
0.500877 0.063276 0.000000
-0.156010 -0.480149 0.000000
0.488997 -0.125553 0.000000
-0.368026 -0.345599 0.000000
-0.442411 0.243217 0.000000
-0.408439 0.296748 0.000000
-0.270517 -0.426266 0.000000
-0.031815 0.505686 0.000000
0.444012 0.244098 0.000000
-0.271496 0.427809 0.000000
0.369358 0.346850 0.000000
-0.502691 -0.063505 0.000000
0.322974 -0.390408 0.000000
0.409918 0.297823 0.000000
-0.094943 0.497711 0.000000
0.506686 -0.000000 0.000000
-0.215736 0.458463 0.000000
-0.156575 0.481887 0.000000
0.031815 0.505686 0.000000
0.369358 -0.346850 0.000000
0.409918 -0.297823 0.000000
0.471105 0.186524 0.000000
0.322974 0.390408 0.000000
0.271496 0.427809 0.000000
-0.369358 0.346850 0.000000
-0.322974 0.390408 0.000000
0.215736 0.458463 0.000000
0.156575 -0.481887 0.000000
-0.322974 -0.390408 0.000000
0.271496 -0.427809 0.000000
-0.490768 -0.126008 0.000000
0.156575 0.481887 0.000000
-0.031815 -0.505686 0.000000
0.094943 0.497711 0.000000
-0.506686 0.000000 0.000000
0.444012 -0.244098 0.000000
-0.490768 0.126008 0.000000
-0.444012 -0.244098 0.000000
0.094943 -0.497711 0.000000
0.490768 0.126008 0.000000
-0.502691 0.063505 0.000000
0.215736 -0.458463 0.000000
0.031815 -0.505686 0.000000
0.471105 -0.186524 0.000000
-0.471105 -0.186524 0.000000
0.502691 -0.063505 0.000000
-0.215736 -0.458463 0.000000
-0.094943 -0.497711 0.000000
-0.409918 -0.297823 0.000000
-0.471105 0.186524 0.000000
0.502691 0.063505 0.000000
-0.156575 -0.481887 0.000000
0.490768 -0.126008 0.000000
-0.369358 -0.346850 0.000000
-0.444012 0.244098 0.000000
-0.409918 0.297823 0.000000
-0.271496 -0.427809 0.000000
-0.031952 0.507855 0.000000
0.445917 0.245145 0.000000
-0.272661 0.429644 0.000000
0.370943 0.348338 0.000000
-0.504847 -0.063777 0.000000
0.324359 -0.392083 0.000000
0.411676 0.299100 0.000000
-0.095351 0.499846 0.000000
0.508859 -0.000000 0.000000
-0.216662 0.460430 0.000000
-0.157246 0.483954 0.000000
0.031952 0.507855 0.000000
0.370943 -0.348338 0.000000
0.411676 -0.299100 0.000000
0.324359 0.392083 0.000000
0.473126 0.187324 0.000000
0.272661 0.429644 0.000000
-0.370943 0.348338 0.000000
-0.324359 0.392083 0.000000
0.216662 0.460430 0.000000
0.157246 -0.483954 0.000000
-0.324359 -0.392083 0.000000
0.272661 -0.429644 0.000000
0.157246 0.483954 0.000000
-0.492873 -0.126548 0.000000
-0.031952 -0.507855 0.000000
0.095351 0.499846 0.000000
0.445917 -0.245145 0.000000
-0.508859 0.000000 0.000000
-0.492873 0.126548 0.000000
-0.445917 -0.245145 0.000000
0.095351 -0.499846 0.000000
-0.504847 0.063777 0.000000
0.216662 -0.460430 0.000000
0.492873 0.126548 0.000000
0.031952 -0.507855 0.000000
0.473126 -0.187324 0.000000
-0.473126 -0.187324 0.000000
0.504847 -0.063777 0.000000
-0.216662 -0.460430 0.000000
-0.095351 -0.499846 0.000000
-0.473126 0.187324 0.000000
-0.411676 -0.299100 0.000000
-0.157246 -0.483954 0.000000
0.504847 0.063777 0.000000
0.492873 -0.126548 0.000000
-0.370943 -0.348338 0.000000
-0.445917 0.245145 0.000000
-0.411676 0.299100 0.000000
-0.272661 -0.429644 0.000000
0.318712 0.385257 0.100000
-0.318712 0.385257 0.100000
[...]
POINT_DATA 5000
SCALARS pressure float 1
LOOKUP_TABLE default
101325.000000
101373.348467
101383.827621
101326.477367
101372.482851
101373.360200
101393.279445
101383.839409
101328.173704
101353.768863
101372.487054
101373.389474
101384.561472
101393.283672
101383.868765
101330.137112
101322.272882
101353.771974
101372.497587
101373.445245
101362.585178
101384.564646
101393.294364
101383.924566
101332.401895
101280.108607
101322.275435
101353.779790
101372.518117
101373.539683
101329.315633
101362.587829
101384.572648
101393.315269
101384.019104
101335.001357
101228.678218
101280.110763
101322.281841
101353.794975
101372.553697
101373.689347
101286.017498
101329.317948
101362.594455
101384.588248
101393.351433
101384.169311
101337.966808
101169.216139
101228.680073
101280.116259
101322.294205
101353.821188
101372.611660
101373.916790
101233.797046
101286.019627
101329.323845
101362.607264
101384.615282
101393.410333
101384.397559
101341.327844
101102.986764
101169.217855
101228.684867
101280.126972
101322.315637
101353.863772
101372.702520
101374.251679
101173.804704
101233.798850
101286.024918
101329.335274
101362.629626
101384.659291
101393.502643
101384.733208
101345.112030
101031.198847
101102.988123
101169.222133
101228.694427
101280.145579
101322.350710
101353.930542
101372.840823
101374.732267
101107.150030
101173.806158
101233.803483
101286.035105
101329.355118
101362.666221
101384.728209
101393.643177
101385.215616
101349.336198
100955.123816
101031.199777
101102.991544
101169.230329
101228.710966
101280.175869
101322.405428
101354.032340
101373.047398
101375.407391
101035.022539
101107.151192
101173.809953
101233.812535
101286.052688
101329.387511
101362.723536
101384.833061
101393.852972
101385.893375
101354.005698
100876.082137
100955.124528
101031.202274
101102.998029
101169.244433
101228.737700
101280.223459
101322.489191
101354.184514
101373.350478
101376.336210
100958.676983
101035.023514
101107.154236
101173.817364
101233.828305
101286.081528
101329.438389
101362.811290
101384.989838
101394.160960
101386.826092
101359.124323
100795.399912
100876.082621
100955.126330
101031.207203
101103.009237
101169.267450
101228.779372
101280.296248
101322.614576
101354.408043
101373.788225
101377.591497
100879.394900
100958.677695
101035.025885
101107.160175
101173.830463
101233.853919
101286.127127
101329.516033
101362.942955
101385.220770
101394.605900
101388.086600
101364.701072
100714.388427
100795.399883
100876.083671
100955.130057
101031.215774
101103.027774
101169.303543
101228.843014
101280.405364
101322.799646
101354.732147
101374.412206
101379.262171
100798.461947
100879.395144
100958.679411
101035.030560
101107.170650
101173.851811
101233.893908
101286.196478
101329.632493
101363.137605
101385.555531
101395.240056
101389.765179
101370.728103
100634.379447
100714.388003
100795.399902
100876.085771
100955.136543
101031.229858
101103.056935
101169.358391
101228.938461
101280.566148
101323.069124
101355.196847
101375.291574
101381.449090
100717.205046
100798.461853
100879.395886
100958.682733
101035.038791
101107.187773
101173.885168
101233.955034
101286.300185
101329.804661
101363.421077
101386.035112
101396.134601
101391.962652
101377.197985
100556.728826
100634.378772
100714.386947
100795.400155
100876.089645
100955.147276
101031.252236
101103.101273
101169.439951
101229.078241
101280.800058
101323.457148
101355.856397
101376.515127
101384.260446
100636.995805
100717.204648
100798.461590
100879.397388
100958.688501
101035.052405
101107.214993
101173.936556
101234.046774
101286.453874
101330.055198
101363.829179
101386.717366
101397.379497
101394.789071
101384.138176
100482.651294
100556.728136
100634.377138
100714.385167
100795.400855
100876.095997
100955.164093
101031.286466
101103.167180
101169.560148
101229.281795
101281.136631
101324.010730
101356.784169
101378.191436
101387.823228
100559.084572
100636.995188
100717.203715
100798.461074
100879.400086
100958.698211
101035.074190
101107.256753
101174.013929
101234.181598
101286.676801
101330.415691
101364.411906
101387.676570
101399.086161
101398.372824
101391.638095
100413.308805
100482.649994
100556.726159
100634.374164
100714.382470
100795.402110
100876.105796
100955.189597
101031.337728
101103.264901
101169.734052
101229.573998
101281.616007
101324.792454
101358.072082
101380.459302
101392.296711
100484.693127
100559.083714
100636.993582
100717.201918
100798.460298
100879.404719
100958.713408
101035.107729
101107.319706
101174.127447
101234.377684
101286.997617
101330.931155
101365.234753
101389.009440
101401.396142
101402.875852
101399.796170
100349.930739
100413.307430
100482.646786
100556.722081
100634.369260
100714.378427
100795.404382
100876.120773
100955.227363
101031.413274
101103.406196
101169.983738
101229.990394
101282.293639
101325.882134
101359.842969
101383.499783
101397.845344
100415.126291
100484.691903
100559.081398
100636.990526
100717.198928
100798.459549
100879.412554
100958.736787
101035.158014
101107.412659
101174.293125
101234.659227
101287.455412
101331.659338
101366.382854
101390.842696
101404.495114
101408.465313
101408.760469
100293.592423
100349.929011
100413.303882
100482.640843
100556.714750
100634.361492
100714.372240
100795.407762
100876.142656
100955.282357
101031.522856
101103.609443
101170.338727
101230.578238
101283.239135
101327.387226
101362.261915
101387.519881
101404.642063
100351.556669
100415.124635
100484.688765
100559.076668
100636.985329
100717.194426
100798.458950
100879.424685
100958.771493
101035.231663
101107.548042
101174.531492
101235.061342
101288.102090
101332.677040
101367.969779
101393.348471
101408.595589
101415.317354
101418.790305
100245.163230
100293.590604
100349.924565
100413.296946
100482.630610
100556.702684
100634.349453
100714.363153
100795.412617
100876.174138
100955.361239
101031.680345
101103.899274
101170.840058
101231.398339
101284.548055
101329.455114
101365.527260
101392.746573
101412.924408
100294.964704
100351.554626
100415.120572
100484.682733
100559.068247
100636.976803
100717.187852
100798.458862
100879.442869
100958.822238
101035.337989
101107.743209
101174.872436
101235.628897
101289.005653
101334.085932
101370.151936
101396.733216
101413.931803
101423.673715
101430.305487
100205.429930
100245.161124
100293.585877
100349.916067
100413.284761
100482.613833
100556.683596
100634.331201
100714.349933
100795.419260
100876.219031
100955.473365
101031.904849
101104.309009
101171.538748
101232.533419
101286.350748
101332.265817
101369.867702
101399.466367
101423.050831
100246.269853
100294.962893
100351.549773
100415.113016
100484.672537
100559.054437
100636.962890
100717.178241
100798.458964
100879.469208
100958.895435
101035.490546
101108.023106
101175.355024
101236.421934
101290.257497
101336.027370
101373.119504
101401.235891
101420.799036
101433.899377
101443.735110
100175.098091
100205.427711
100245.155799
100293.576469
100349.901664
100413.265089
100482.587142
100556.654604
100634.303805
100714.330844
100795.428357
100876.282952
100955.632880
101032.222871
101104.880952
101172.505445
101234.097752
101288.807249
101336.031165
101375.576831
101408.071188
101435.390804
100206.318114
100246.267784
100294.958194
100351.540833
100415.100381
100484.656065
100559.033182
100636.941788
100717.164011
100798.459384
100879.507109
100959.000801
101035.708139
101108.419651
101176.030566
101237.520029
101291.984369
101338.674770
101377.097167
101407.162880
101429.601034
101446.370983
101459.535771
100154.708722
100175.095644
100205.422190
100245.145600
100293.559996
100349.878634
100413.234317
100482.546517
100556.610745
100634.263172
100714.302990
100795.441048
100876.373883
100955.858163
101032.666764
101105.672899
101173.836986
101236.231430
101292.107921
101341.026596
101383.050275
101418.965436
101450.329888
100175.806091
100206.315936
100246.262632
100294.948936
100351.526013
100415.080412
100484.630167
100559.001107
100636.911058
100717.143064
100798.461178
100879.562277
100959.152243
101036.016043
101108.975257
101176.967459
101239.034605
101294.341393
101342.235462
101382.377562
101414.928152
101440.755646
101461.480851
101478.366030
100144.571630
100154.706160
100175.089472
100205.411467
100245.128056
100293.533147
100349.843065
100413.187735
100482.486882
100556.546734
100634.203874
100714.264367
100795.459802
100876.502529
100956.171810
101033.281583
101106.764971
101175.652910
101239.102019
101296.504017
101347.625568
101392.707263
101432.547659
101468.446018
100155.206308
100175.803727
100206.310321
100246.252519
100294.932721
100351.502410
100415.049332
100484.590900
100558.953475
100636.866845
100717.112793
100798.464853
100879.642335
100959.366695
101036.446919
101109.745698
101178.261072
101241.102797
101297.515039
101346.981364
101389.359328
101424.971917
101454.677067
101479.816663
101501.211874
100144.758147
100144.569054
100154.699761
100175.077699
100205.392715
100245.099559
100293.491773
100349.788959
100413.117736
100482.400445
100556.455416
100634.118725
100714.210426
100795.486769
100876.680078
100956.604466
101034.129351
101108.255786
101178.096923
101242.931617
101302.335847
101356.234004
101404.964363
101449.375456
101490.651129
100155.203813
100175.797776
100206.299257
100246.234744
100294.906180
100351.465231
100415.001840
100484.532579
100558.884824
100636.803176
100717.070168
100798.472986
100879.756748
100959.666169
101037.043655
101110.809643
101180.028923
101243.889640
101301.752240
101353.281314
101398.475517
101437.732570
101471.943338
101502.306153
101528.934130
100144.755400
100144.562657
100154.687582
100175.057653
100205.361834
100245.054681
100293.429246
100349.706952
100413.014429
100482.275836
100556.323944
100633.997878
100714.135909
100795.522902
100876.923458
100957.199151
101035.286382
101110.263785
101181.360501
101248.021028
101309.977960
101367.262616
101420.376399
101470.316502
101517.755543
100155.197547
100175.786180
100206.279920
100246.205464
100294.864646
100351.407928
100414.930421
100484.446967
100558.787936
100636.713478
100717.010828
100798.486283
100879.917240
100960.079643
101037.866811
101112.264452
101182.413018
101247.613569
101307.388705
101361.542843
101410.163856
101453.792989
101493.448495
101529.772933
101562.249539
100144.748511
100144.550150
100154.666799
100175.025181
100205.313451
100244.986078
100293.335009
100349.584986
100412.864429
100482.099044
100556.136310
100633.827919
100714.031338
100795.571417
100877.257879
100958.009017
101036.843520
101112.945998
101185.701121
101254.706163
101319.814883
101381.248717
101439.781075
101496.143073
101550.437067
100155.185191
100175.765859
100206.248440
100246.159697
100294.801618
100351.322483
100414.824692
100484.322170
100558.649586
100636.585411
100716.927977
100798.506672
100880.139778
100960.650573
101038.991310
101114.226405
101185.601198
101252.570658
101314.798286
101372.186341
101424.999107
101474.032578
101519.990638
101562.903265
101602.331536
100144.735387
100144.528336
100154.633079
100174.974090
100205.239411
100244.883405
100293.195141
100349.408331
100412.648374
100481.846132
100555.870682
100633.589802
100713.887122
100795.639520
100877.713614
100959.098071
101038.922224
101116.512782
101191.410091
101263.334981
101332.348299
101398.989979
101463.928866
101527.489276
101589.827316
100155.163611
100175.732740
100206.199333
100246.090097
100294.707460
100351.198069
100414.670768
100484.142842
100558.454206
100636.404346
100716.813200
100798.537038
100880.449740
100961.432431
101040.507260
101116.849302
101189.846461
101259.096773
101324.368244
101385.759200
101443.835144
101499.242778
101552.229844
101602.848304
101651.651024
100144.712824
100144.492608
100154.580244
100174.895917
100205.128936
100244.732762
100292.993772
100349.155382
100412.339967
100481.489775
100555.500052
100633.259321
100713.691513
100795.733330
100878.323481
100960.551866
101041.684686
101121.207713
101198.787340
101274.360214
101348.319542
101421.207610
101493.430209
101565.430335
101638.343022
100155.128232
100175.681122
100206.124987
100245.986656
100294.568569
100351.018069
100414.451769
100483.887975
100558.178712
100636.153754
100716.654801
100798.584044
100880.876120
100962.485404
101042.534697
101120.340695
101195.439472
101267.537336
101336.605557
101403.068124
101467.445204
101530.067252
101591.276136
101652.063679
101713.362489
100144.676368
100144.436814
100154.499233
100174.778867
100204.966841
100244.514015
100292.707288
100348.795508
100411.905572
100480.993755
100554.988358
100632.803871
100713.425598
100795.856299
100879.136060
100962.480352
101045.322646
101127.276274
101208.227341
101288.446819
101368.403017
101448.487139
101529.302928
101612.286606
101699.085146
100155.073125
100175.602757
100206.013646
100245.834617
100294.366837
100350.759975
100414.141068
100483.528987
100557.797788
100635.809761
100716.438701
100798.652027
100881.450149
100963.893125
101045.232306
101124.944261
101202.675536
101278.345752
101352.254131
101424.852436
101496.458067
101567.575285
101639.518194
101713.693899
101790.410607
100144.619734
100144.352296
100154.377902
100174.607125
100204.731406
100244.198181
100292.296323
100348.285513
100411.297787
100480.309433
100554.281116
100632.181836
100713.063919
100796.021490
100880.214012
100965.020144
101050.021576
101135.046272
101220.307667
101306.207171
101393.146837
101481.783358
101573.740706
101671.045697
101774.946825
100154.989842
100175.485556
100205.849039
100245.613731
100294.077981
100350.394650
100413.700585
100483.028728
100557.273778
100635.335629
100716.146789
100798.743541
100882.221896
100965.767713
101048.790679
101130.899580
101211.950567
101292.188385
101372.000629
101451.715709
101531.897513
101614.067512
101700.039064
101790.677015
101886.367223
100144.533794
100144.226882
100154.199887
100174.357804
100204.391853
100243.748576
100291.716816
100347.570246
100410.452363
100479.364793
100553.312283
100631.343889
100712.583471
100796.238942
100881.633647
100968.301161
101056.043161
101144.996830
101235.558211
101328.135417
101423.430018
101523.141128
101629.581941
101744.501343
101869.441733
100154.866308
100175.312434
100205.610312
100245.296168
100293.665095
100349.875802
100413.083870
100482.333478
100556.551695
100634.687555
100715.757594
100798.872355
100883.252861
100968.242572
101053.396244
101138.539047
101223.839986
101309.681432
101396.403055
101484.619127
101575.947267
101672.519557
101775.721620
101886.582049
102005.496274
100144.405889
100144.042978
100153.941716
100173.998963
100203.907926
100243.112679
100290.907634
100346.580709
100409.286335
100478.071943
100552.011257
100630.222644
100711.942597
100796.519706
100883.461665
100972.505759
101063.756143
101157.571728
101254.416986
101355.024737
101461.127946
101575.216711
101699.480108
101836.050644
101986.765472
100154.685041
100175.061310
100205.269332
100244.842844
100293.083389
100349.154729
100412.231577
100481.376434
100555.565068
100633.822001
100715.238859
100799.048045
100884.610913
100971.444785
101059.307916
101148.335721
101238.878082
101331.331757
101426.350341
101525.607276
101631.444644
101745.717373
101870.072856
102005.671804
102153.051654
100144.218612
100143.775923
100153.570170
100173.489545
100203.225324
100242.223583
100289.788137
100345.216507
100407.697085
100476.332086
100550.268860
100628.729483
100711.088941
100796.882260
100885.805381
100977.891801
101073.507344
101173.134510
101277.572487
101388.551781
101508.675796
101640.488804
101786.664575
101949.756152
102132.083311
100154.421823
100174.701854
100204.782339
100244.204107
100292.270118
100348.157560
100411.058259
100480.074525
100554.241349
100632.664921
100714.551883
100799.275687
100886.374231
100975.558871
101066.893820
101160.737716
101257.509236
101357.937878
101463.716885
101577.337784
101701.042145
101837.052463
101987.283110
102153.196928
102337.609717
100143.948276
100143.392671
100153.041332
100172.768244
100202.270695
100240.988612
100288.239287
100343.347405
100405.545159
100474.003255
100547.949188
100626.762751
100709.987277
100797.338849
100888.804323
100984.703501
101085.580658
101192.258782
101306.477167
101430.894646
101568.349254
101721.979929
101895.006774
102090.612427
102313.664551
100154.044643
100174.188528
100204.095541
100243.311433
100291.140753
100346.779228
100409.452092
100478.312129
100552.471674
100631.130126
100713.652973
100799.580699
100888.635934
100980.837899
101076.501547
101176.111885
101280.428762
101391.179679
101510.945278
101642.299172
101787.971397
101950.584811
102132.512093
102337.730257
102584.148955
100143.561899
100142.849490
100152.293795
100171.760763
100200.943746
100239.287638
100286.127293
100340.829088
100402.675469
100470.903184
100544.894400
100624.207743
100708.562014
100797.919618
100892.592365
100993.135726
101100.423770
101216.151734
101343.022237
101484.095751
101642.919576
101823.311058
102029.257040
102266.324882
102555.443895
100153.509293
100173.463901
100203.135405
100242.071094
100289.586273
100344.901803
100407.291290
100475.966002
100550.120786
100629.114167
100712.488811
100799.968464
100891.544410
100987.527076
101088.416776
101195.035707
101309.088970
101433.238516
101570.321310
101723.517755
101896.100282
102091.302567
102314.020709
102584.247310
102939.585202
100143.013493
100142.083753
100151.249461
100170.364913
100199.116949
100236.959675
100283.273263
100337.459539
100398.845747
100466.815063
100540.934079
100620.926957
100706.725292
100798.641828
100897.275162
101003.500791
101118.975941
101246.383342
101388.979444
101550.637269
101735.707735
101948.920392
102196.410142
102498.804995
102903.979802
100152.755305
100172.451779
100201.805967
100240.365167
100287.459740
100342.365958
100404.401818
100472.838251
100547.025107
100626.504878
100711.000866
100800.469414
100895.227237
100995.823518
101103.090146
101218.716374
101345.384405
101486.166433
101644.622415
101824.614583
102030.175374
102266.901704
102555.735320
102939.664111
103438.703160
100142.242104
100141.013407
100149.801028
100168.438774
100196.616181
100233.818224
100279.459959
100332.968069
100393.798061
100461.520396
100535.847304
100616.703019
100704.383175
100799.522698
100903.026395
101016.458702
101142.461838
101284.426386
101446.498389
101633.482899
101850.780080
102105.063542
102415.537716
102833.653801
103395.051665
100151.700925
100171.048049
100199.971914
100238.030425
100284.592471
100338.980217
100400.552977
100468.720332
100543.022193
100623.160736
100709.087244
100801.101225
100899.795510
101006.041322
101121.459429
101248.725498
101391.093699
101552.451567
101737.172349
101950.027238
102197.184588
102499.281411
102904.213776
103438.766619
104082.942380
100141.167608
100139.534330
100147.804493
100165.806561
100193.242073
100229.618407
100274.373484
100327.044202
100387.255546
100454.717751
100529.306295
100611.336485
100701.457859
100800.587435
100910.207966
101032.863751
101172.028541
101332.063618
101518.153040
101736.279206
101993.682418
102307.480645
102730.237612
103308.629735
104030.133534
100150.244349
100169.113785
100197.466411
100234.881309
100280.761353
100334.467034
100395.480163
100463.387248
100537.883879
100618.867728
100706.661274
100801.881019
100905.421371
101018.839130
101144.750787
101286.543173
101448.373207
101635.063450
101852.038485
102106.007223
102416.185641
102834.038573
103395.239875
104082.993595
104865.577709
100139.682397
100137.495532
100145.074893
100162.252481
100188.730737
100224.018584
100267.665794
100319.363465
100378.850644
100445.973492
100521.003532
100604.655436
100697.828943
100801.898530
100919.293362
101053.515248
101209.064813
101391.436375
101607.106385
101863.888063
102176.818333
102596.204482
103181.099505
103925.509003
104801.271986
100148.236837
100166.469845
100194.084686
100230.672030
100275.655017
100328.518475
100388.907319
100456.541774
100531.285538
100613.424160
100703.644561
100802.835374
100912.465379
101035.072935
101174.116889
101333.958882
101519.804463
101737.651683
101994.765878
102308.281973
102730.766242
103308.939051
104030.285844
104865.618531