/*--------------------------------*- C++ -*----------------------------------*\
| =========                 |                                                 |
| \\      /  F ield         | OpenFOAM: The Open Source CFD Toolbox           |
|  \\    /   O peration     | Version:  2406                                  |
|   \\  /    A nd           | Website:  www.openfoam.com                      |
|    \\/     M anipulation  |                                                 |
\*---------------------------------------------------------------------------*/
FoamFile
{
    version     2.0;
    format      ascii;
    arch        "LSB;label=32;scalar=64";
    class       volScalarField;
    location    "91";
    object      p;
}
// * * * * * * * * * * * * * * * * * * * * * * * * * * * * * * * * * * * * * //

dimensions      [0 2 -2 0 0 0 0];

internalField   nonuniform List<scalar> 
11524
(
-0.18105134
-0.25474283
-0.43982602
-0.73039555
-1.1194542
-1.6063816
-2.190782
-2.8672657
-3.6232865
-4.4374406
-5.27803
-6.1028483
-6.8580318
-7.486301
-7.9331915
-8.1591051
-8.1495429
-7.9169386
-7.5004354
-6.9563178
-6.3389816
-5.6961477
-5.0625005
-4.4601722
-3.9019938
-3.3943229
-2.9389201
-2.5343749
-2.1773019
-1.8632181
-1.5871628
-1.3441159
-1.1293098
-0.93836234
-0.76728782
-0.6124121
-0.47031002
-0.33783763
-0.21172611
-0.095192225
-0.10562092
-0.1789682
-0.36262358
-0.65175852
-1.0410107
-1.5302824
-2.1205731
-2.807713
-3.580885
-4.4202312
-5.2945342
-6.1592017
-6.9575264
-7.6252678
-8.0997635
-8.3358874
-8.3155104
-8.05398
-7.5982526
-7.0135273
-6.3616109
-5.6928255
-5.0415028
-4.4282623
-3.8643923
-3.3549073
-2.9003853
-2.4984458
-2.1449539
-1.8348894
-1.5629055
-1.3237586
-1.1125843
-0.92500898
-0.75709201
-0.60520191
-0.46593754
-0.33613519
-0.21237611
-0.097201925
0.045028979
-0.027317352
-0.20862883
-0.49459302
-0.88168836
-1.3733671
-1.9743972
-2.6830405
-3.4909026
-4.3810575
-5.3238639
-6.2708374
-7.1605887
-7.9124797
-8.4466233
-8.7046059
-8.6605533
-8.3358773
-7.7974472
-7.1262773
-6.4022545
-5.6808848
-4.9944964
-4.3598667
-3.7848906
-3.2717527
-2.8186359
-2.4212523
-2.0740858
-1.7711257
-1.5063338
-1.2740252
-1.069127
-0.8872165
-0.72436453
-0.57696975
-0.4416844
-0.31552035
-0.19564669
-0.085902913
0.2699167
0.19954502
0.022747452
-0.25739719
-0.63984445
-1.132174
-1.7428255
-2.4794938
-3.3388339
-4.305819
-5.3538858
-6.4367998
-7.4738184
-8.3665053
-9.0023234
-9.2988149
-9.2134085
-8.7777841
-8.0953504
-7.2845031
-6.448422
-5.6489612
-4.9130253
-4.250225
-3.6627702
-3.1482231
-2.7008699
-2.3134613
-1.9784544
-1.6884909
-1.4366592
-1.2167929
-1.0236471
-0.85277404
-0.70021967
-0.56229479
-0.43552634
-0.31674418
-0.20255997
-0.094901666
0.56712531
0.50005541
0.33107197
0.061194277
-0.31158562
-0.79924062
-1.417013
-2.179736
-3.1016729
-4.1712962
-5.3670376
-6.6441696
-7.9059689
-9.0196861
-9.8202314
-10.179814
-10.023372
-9.4022656
-8.4891631
-7.4679418
-6.4749173
-5.5720118
-4.7728843
-4.0754441
-3.4739281
-2.9594871
-2.5209697
-2.1470738
-1.8275151
-1.5531384
-1.3159718
-1.1094707
-0.92850169
-0.76888123
-0.62681966
-0.49862037
-0.38078672
-0.27039123
-0.16522309
-0.069646427
0.93334686
0.87154253
0.71517622
0.46286891
0.1085019
-0.36445907
-0.97991441
-1.7652804
-2.7492467
-3.9422863
-5.3314578
-6.8755303
-8.4632076
-9.9195607
-10.987468
-11.443799
-11.160586
-10.242933
-8.9711438
-7.6505406
-6.4579019
-5.4375164
-4.5743049
-3.8478154
-3.241634
-2.7385449
-2.3206412
-1.9719347
-1.6789806
-1.4303701
-1.2167671
-1.0312454
-0.86899817
-0.72636927
-0.59990089
-0.4859605
-0.38094519
-0.2816309
-0.18463307
-0.090592232
1.3633005
1.3093343
1.1720765
0.94757159
0.62528296
0.18235258
-0.4130273
-1.2027563
-2.2328225
-3.5564348
-5.1868603
-7.0886246
-9.1605068
-11.136674
-12.631021
-13.24043
-12.733262
-11.314818
-9.4918912
-7.7524283
-6.3117114
-5.1608447
-4.2331569
-3.4830972
-2.8806855
-2.3974236
-2.0071913
-1.689315
-1.4274835
-1.2081141
-1.0205565
-0.85765438
-0.71509088
-0.58983126
-0.47881622
-0.37864539
-0.28602312
-0.19848741
-0.1150533
-0.04164226
1.8490177
1.8060961
1.696082
1.5126239
1.2412506
0.8535697
0.30773891
-0.4521642
-1.5011923
-2.9285525
-4.8275051
-7.2065638
-9.9680667
-12.766182
-14.97493
-15.836132
-14.921973
-12.662796
-10.012431
-7.7407558
-6.0474115
-4.792523
-3.8283799
-3.0833188
-2.5130869
-2.0747364
-1.7325709
-1.4617477
-1.2439892
-1.0644407
-0.91204096
-0.78005684
-0.66483734
-0.56374029
-0.47386026
-0.39201666
-0.31536297
-0.24165152
-0.16781323
-0.091169224
2.3792569
2.3509736
2.277527
2.150879
1.9539644
1.6549665
1.2041495
0.52787589
-0.47890089
-1.9623644
-4.0990815
-7.0640181
-10.801861
-14.923846
-18.381861
-19.653633
-17.926198
-14.164877
-10.221969
-7.2812677
-5.3669238
-4.0620127
-3.104526
-2.402964
-1.8990049
-1.5323799
-1.2574428
-1.0459498
-0.8786619
-0.74117786
-0.62420553
-0.52303554
-0.43507293
-0.35755424
-0.28707899
-0.22061477
-0.15669841
-0.095986164
-0.04148192
-0.0017068017
2.9389862
2.9290269
2.901726
2.8487724
2.7531266
2.5838133
2.2884579
1.7809355
0.9236323
-0.49701554
-2.7976075
-6.3870393
-11.493584
-17.78904
-23.561497
-25.567828
-22.273892
-15.942758
-10.14106
-6.5036978
-4.4964942
-3.2355594
-2.3510431
-1.7513991
-1.362382
-1.1058784
-0.92919569
-0.80161386
-0.7027736
-0.6199455
-0.54802675
-0.48630165
-0.4337669
-0.38689288
-0.34072808
-0.2915325
-0.2385813
-0.18393013
-0.12947477
-0.07585218
3.5093957
3.5208416
3.5480583
3.584354
3.6167274
3.6218164
3.5548719
3.3309434
2.793069
1.6586702
-0.54615689
-4.5772652
-11.470057
-21.512713
-31.680205
-34.640545
-27.695409
-16.69145
-8.4620055
-4.529553
-2.8180443
-1.791727
-1.0969592
-0.68460588
-0.46145296
-0.34037101
-0.274603
-0.23737119
-0.20933662
-0.1812137
-0.15414029
-0.13298703
-0.11917868
-0.10860892
-0.094574094
-0.072208415
-0.041257335
-0.0063028261
0.023852423
0.034392471
4.0683399
4.1030093
4.1898181
4.3260057
4.5073791
4.727192
4.9641258
5.1610454
5.1833036
4.7298819
3.1809487
-0.72431937
-9.6192159
-26.168886
-46.275439
-51.199358
-36.247132
-16.33564
-4.8016009
-1.4312619
-0.64323537
-0.15065841
0.14734032
0.21462626
0.16764436
0.090769369
0.010489958
-0.060393297
-0.11022471
-0.13677138
-0.1485802
-0.15660007
-0.16599032
-0.17446378
-0.17622695
-0.16710954
-0.14731045
-0.1207544
-0.091304619
-0.059794773
4.5917838
4.6492964
4.7952724
5.0326977
5.3704246
5.8271528
6.423553
7.1684588
8.0248359
8.8141511
8.9460528
6.9354882
-3.0506705
-29.938143
-69.372585
-75.161553
-45.252054
-12.345759
1.8317197
3.3589748
2.6775217
2.3481864
2.0862743
1.7377415
1.3840922
1.0798339
0.82854383
0.62623713
0.47194465
0.36007727
0.27865501
0.21536541
0.16338884
0.12200227
0.093011099
0.076678769
0.069907123
0.066953005
0.060687655
0.04301206
5.0559264
5.1332088
5.3305997
5.6573846
6.1368673
6.8174001
7.7744777
9.1196369
11.013169
13.669067
17.206853
21.563211
15.779663
-19.781741
-109.74329
-115.86218
-57.893293
-3.2002334
11.759476
9.0257042
6.3034843
4.4657114
3.2702445
2.4297005
1.8036363
1.3328837
0.98092031
0.71791343
0.52088677
0.37292806
0.26130557
0.17707807
0.11506786
0.07248496
0.046439462
0.032166706
0.023266463
0.013768304
0.0011751978
-0.010918467
5.4401972
5.5313123
5.7647604
6.1543963
6.7342974
7.5760394
8.8014353
10.619266
13.406347
17.923992
25.363341
36.214807
60.247712
36.919755
-218.15688
-199.04833
-74.949288
40.759261
24.892339
17.301808
12.037351
8.1098527
5.5593948
3.9699105
2.9043866
2.1486605
1.608791
1.2197685
0.9302402
0.7070976
0.53299611
0.39958067
0.30185191
0.23466063
0.1908432
0.16114587
0.135852
0.10729594
0.072017376
0.031573469
5.7301302
5.8271659
6.075734
6.4905234
7.1077131
8.0033928
9.3075126
11.243281
14.215404
19.041453
27.016478
43.773087
86.185821
322.54649
100.88558
38.553307
19.231526
13.36579
9.0917524
6.2848524
4.5188474
3.3359652
2.4983135
1.897944
1.4629324
1.1376291
0.8856942
0.68751369
0.5333197
0.417257
0.33356856
0.27463097
0.23087477
0.1924219
0.15153718
0.10429466
0.052092944
5.9196312
6.0141482
6.2556191
6.6555627
7.2428872
8.078295
9.2587614
10.933043
13.329889
16.796229
21.742998
28.72808
42.741028
16.181005
-121.26661
-117.26293
-29.69345
31.98739
19.757474
13.749413
9.6226704
6.9304312
5.1083715
3.8286202
2.9025579
2.2180222
1.7058962
1.3197269
1.0261072
0.80012138
0.62323375
0.48275638
0.37114651
0.28393243
0.21694375
0.16455766
0.12000994
0.077431829
0.034851684
-0.0015380987
6.0113924
6.0961772
6.3116639
6.6638753
7.1692472
7.8634408
8.7953847
10.019789
11.575819
13.415156
15.177681
15.72903
9.7685985
-11.592338
-46.491216
-51.12777
-23.610129
3.6333614
12.012298
10.072986
7.585553
6.1157895
5.0139443
4.0491248
3.2492285
2.6124977
2.1041575
1.698735
1.3814176
1.1358531
0.94184251
0.78133954
0.64361199
0.52511046
0.42551761
0.3436583
0.27566728
0.21551253
0.15550598
0.088965977
6.0156973
6.0857049
6.2624478
6.5460889
6.9402685
7.4562304
8.1014135
8.8619104
9.6683209
10.318849
10.337655
8.6394034
2.752658
-10.176523
-27.372307
-31.541205
-18.122528
-1.8689231
5.649232
6.1261267
5.1254322
4.4107765
3.7983686
3.1673143
2.588477
2.100398
1.6941685
1.3603378
1.0956942
0.89086286
0.72801968
0.58924198
0.46431196
0.35180985
0.25482237
0.17569255
0.11316676
0.062858407
0.020521179
-0.011040262
5.9479571
6.0006741
6.1325495
6.339122
6.6140253
6.950317
7.3283899
7.6981813
7.9498691
7.867636
7.0501532
4.791963
0.03275577
-7.7642491
-16.227624
-18.780171
-12.760711
-4.1152852
1.5732781
3.3306883
3.453667
3.3158141
3.1026255
2.7913608
2.4395495
2.1008953
1.7932119
1.5227826
1.2946387
1.1068837
0.94916145
0.80921932
0.67996924
0.56128431
0.45680424
0.36929286
0.29765119
0.23640106
0.17560772
0.10367146
5.8261906
5.8612587
5.9478684
6.0787513
6.2414634
6.4183607
6.5767806
6.6556043
6.5470872
6.0753052
4.9544316
2.7704303
-0.79032639
-5.5778647
-10.243016
-11.961695
-9.2961235
-4.3627095
-0.3620237
1.567369
2.1800878
2.3400205
2.3322366
2.1977543
1.9835613
1.7433259
1.5069119
1.2872181
1.0915763
0.92249215
0.77643521
0.64681397
0.52868862
0.42100395
0.32534003
0.24306223
0.17321523
0.11244949
0.057116643
0.010034245
5.6686578
5.6873309
5.7322583
5.7951794
5.8612073
5.9082695
5.9005593
5.7803116
5.4595936
4.8080635
3.651323
1.7845461
-0.81770232
-3.9071811
-6.6496603
-7.7497469
-6.4708052
-3.6697359
-1.051795
0.56473675
1.3207219
1.6509716
1.7850314
1.7878094
1.7002074
1.5659926
1.4144744
1.2602156
1.1119426
0.9755824
0.8529784
0.74215805
0.63998586
0.54462147
0.45600237
0.37465709
0.30021226
0.23056564
0.16106691
0.088123729
5.4922995
5.4967331
5.505817
5.5116686
5.4996608
5.4476155
5.3224071
5.0769966
4.643481
3.934144
2.8473633
1.3273832
-0.58604995
-2.6621823
-4.3939288
-5.1483953
-4.5548405
-2.9722954
-1.2884584
-0.040329456
0.69707992
1.096937
1.3055577
1.3872908
1.3785991
1.3130599
1.2160399
1.1029033
0.98400051
0.86734846
0.75766439
0.65571972
0.55982264
0.46815766
0.38015599
0.29638472
0.21765271
0.14441895
0.077218954
0.022638989
5.311741
5.3044907
5.2843911
5.2448249
5.1730825
5.0493623
4.8464051
4.5268168
4.0426166
3.3371331
2.3747035
1.150822
-0.28126464
-1.7374783
-2.9059853
-3.4564986
-3.1975528
-2.288519
-1.2033558
-0.28201958
0.35409703
0.7509536
0.98793588
1.1141601
1.1585736
1.1455426
1.0952827
1.0221857
0.93666624
0.84681242
0.75797625
0.67220711
0.58908819
0.50755897
0.42732866
0.34915742
0.27420076
0.20310077
0.13470887
0.06902771
5.1389695
5.1225625
5.0797937
5.0057162
4.8903219
4.7175265
4.4653277
4.1062044
3.6064134
2.9429247
2.1057199
1.1065186
0.01106996
-1.059696
-1.9003278
-2.3299795
-2.2476322
-1.7291254
-1.036022
-0.37809904
0.13495553
0.4936404
0.73103527
0.87685965
0.95127872
0.97147858
0.95297787
0.90819351
0.84662402
0.77564339
0.70051316
0.62406528
0.54715384
0.46980531
0.39232318
0.31566194
0.24111003
0.16973981
0.10198286
0.041905443
4.9833259
4.9600559
4.9004153
4.8011784
4.6551536
4.4494092
4.167614
3.7911432
3.2991873
2.6865345
1.9549508
1.1244094
0.25310084
-0.56720707
-1.2086758
-1.5641367
-1.5778173
-1.2879755
-0.84400977
-0.37636312
0.028180496
0.33969349
0.56420344
0.71594189
0.80749463
0.85060663
0.85663262
0.83544844
0.79504388
0.74182046
0.68069606
0.61494512
0.54635479
0.47584252
0.40418005
0.33235323
0.26143744
0.19218935
0.12423475
0.059705049
4.8518036
4.8236075
4.7519456
4.6351408
4.4683394
4.2416281
3.9432988
3.5606557
3.0863418
2.52037
1.8712088
1.162638
0.443723
-0.21651096
-0.7347596
-1.0439763
-1.1115474
-0.95850799
-0.67318823
-0.33989398
-0.024328206
0.23949291
0.44386581
0.59235163
0.69118587
0.74756277
0.76920228
0.7635395
0.73711896
0.69556552
0.6435262
0.58454071
0.52098805
0.45439101
0.38584934
0.31638353
0.24697428
0.17845372
0.11115281
0.048879853
4.7493929
4.7178514
4.6380897
4.5095091
4.3291439
4.0898249
3.7828083
3.4021807
2.9455236
2.4161163
1.8264719
1.2031202
0.58385003
0.02401392
-0.41869691
-0.69916122
-0.79707287
-0.7252848
-0.53839256
-0.29434517
-0.043333107
0.18227957
0.36839375
0.51172741
0.61377168
0.67831317
0.71048507
0.71592531
0.70012823
0.66811216
0.62424545
0.57205777
0.51415267
0.45232271
0.38783761
0.32171402
0.25482839
0.18786069
0.12080291
0.05660759
4.6794709
4.6458997
4.5612031
4.4253498
4.2367589
3.9905494
3.6807723
3.3038373
2.8599826
2.3554597
1.8048181
1.232839
0.67492138
0.17423544
-0.22490551
-0.48855866
-0.60284421
-0.57686361
-0.44705095
-0.25726097
-0.048070221
0.15083552
0.32274115
0.46056085
0.56281222
0.63113443
0.66902571
0.68093092
0.67155042
0.64538091
0.60646755
0.55821212
0.50327758
0.44361969
0.38066816
0.3155327
0.24913747
0.18225876
0.11523715
0.05192669
4.6440882
4.6096109
4.5223506
4.3829926
4.1910339
3.9421221
3.6314135
3.2565116
2.8191892
2.3271625
1.7957776
1.2487146
0.71954019
0.24636744
-0.13267647
-0.38859413
-0.51000181
-0.504769
-0.4011132
-0.2368524
-0.048053792
0.13732589
0.30174335
0.43647426
0.53861082
0.60873387
0.64951164
0.66476561
0.65874884
0.63566485
0.59937826
0.55323563
0.49995244
0.44160935
0.37976104
0.31560021
0.25007739
0.18394614
0.11742888
0.053966439
-166.54608
316.64574
36.929692
-166.53355
316.63993
-219.60854
-218.17783
-219.61399
-114.96999
-199.05243
-114.96501
17.399281
141.56037
-74.947077
17.400965
141.56833
60.046685
-127.68423
322.5396
60.056237
-127.66887
-178.73887
-180.56453
-178.75417
-180.56209
-160.44331
-75.212753
-160.43959
-75.20989
145.24893
-35.945401
45.468703
145.25371
-35.941727
45.469411
-292.60658
-296.96273
-296.87804
-292.68062
-166.32419
-226.05146
-225.98218
-166.34588
37.037545
-43.745283
-43.733161
36.924458
-130.17355
-330.02299
-330.14322
-130.1563
-130.16899
-330.00933
-330.1351
-130.14351
-337.14304
-345.14619
-345.06564
-337.22383
-322.53886
-290.54372
-290.44672
-322.52205
-337.14473
-345.13022
-345.05476
-337.21863
-322.53623
-290.53797
-290.44987
-322.51836
-209.13951
-268.10719
-268.0364
-209.1673
-182.60004
-120.23137
-120.21148
-182.6265
-209.13714
-268.09504
-268.03534
-209.15801
-182.59682
-120.22675
-120.21034
-182.61598
-13.789692
-91.616522
-91.603207
-13.920857
-13.790186
-91.61408
-91.602361
-13.922038
-81.010792
-280.1105
-280.22646
-80.997294
-81.005563
-280.08112
-280.21091
-80.984457
-279.1579
-248.11352
-248.00762
-279.14503
-292.6053
-296.9198
-296.86244
-292.66846
-279.15541
-248.10459
-248.00996
-279.14883
-139.3685
-73.523531
-73.503286
-139.39798
-166.3223
-226.03261
-225.97809
-166.34132
-139.36616
-73.518043
-73.50149
-139.39151
37.03931
-43.737655
-43.729621
36.927606
-61.47433
-6.4266487
-82.026474
-19.78322
-61.474371
-6.4212679
-82.016949
-125.6271
-155.37102
-170.97322
-109.74848
-125.63292
-155.37686
-170.97696
-94.770843
-152.2601
-112.9203
-115.86756
-94.775489
-152.26219
-112.92166
61.275465
84.516321
250.4768
60.247729
61.272734
84.516145
250.47194
-285.09053
-218.18679
-231.17057
-280.00442
-231.17832
-280.02308
-285.10428
-200.17518
-199.05306
-179.14991
-232.63272
-179.15549
-232.61756
-200.18493
33.752657
94.793846
50.96993
40.759545
33.752815
94.796333
50.969639
253.96156
68.229563
78.304238
86.18585
253.95627
68.229773
78.301387
50.509587
322.75356
169.84257
169.86815
50.617881
-225.17316
-257.77554
-257.6912
-225.20539
-5.646777
-54.736005
-54.746379
-5.6400152
54.918327
57.395988
42.949892
100.88723
54.918228
57.397113
42.950526
-51.709941
1.2183739
-35.718959
16.186227
-51.699918
1.2176344
-35.718213
-135.85995
-80.658445
-95.062816
-121.2701
-135.86115
-80.661919
-95.067043
-78.152448
-85.582116
-64.756251
-117.26334
-78.153668
-85.586092
-64.760221
-113.94045
-166.5603
-92.436935
-228.86021
-92.44371
-228.89112
-113.90429
7.6962982
316.84052
149.15241
149.18379
7.8111935
-402.18055
-402.14991
-113.93559
-166.55146
-92.433192
-228.84291
-92.441978
-228.87892
-113.89779
7.7001264
316.83772
149.14924
149.18042
7.8193282
-402.17881
-402.13389
-273.34514
-219.61497
-226.02409
-257.05644
-226.03881
-257.02075
-273.3484
-285.09576
-218.19981
-231.1851
-280.02124
-231.18624
-280.0335
-285.11423
-273.34625
-219.61784
-226.02828
-257.05944
-226.04157
-257.02204
-273.35077
-160.70169
-114.97282
-142.84444
-121.34571
-142.84792
-121.34021
-160.71145
-268.29282
-300.5622
-300.46767
-268.33881
-159.97285
-123.92286
-123.93023
-159.95974
-200.17408
-199.05547
-179.14804
-232.63488
-179.15512
-232.61832
-200.18217
-160.69837
-114.97074
-142.83904
-121.34059
-142.8457
-121.33765
-160.70464
-268.28197
-300.53814
-300.45533
-268.31763
-159.97102
-123.92123
-123.9299
-159.95481
-62.644524
-106.6564
-106.65688
-62.645769
13.644499
141.69457
90.745512
30.209528
90.753084
30.413684
13.683702
-62.645933
-106.655
-106.6566
-62.647291
13.645258
141.69668
90.745636
30.211331
90.753743
30.411008
13.682046
-343.42563
-343.3885
-72.013892
-127.69622
-183.96794
-56.507919
-183.99819
-56.514666
-71.977024
50.513903
322.74996
169.83887
169.86558
50.624318
-343.41874
-343.36869
-72.009192
-127.68559
-183.94974
-56.504593
-183.98353
-56.512973
-71.971653
-242.67865
-178.76839
-236.08188
-191.81638
-236.09813
-191.82457
-242.69881
-231.98653
-180.56904
-215.96104
-187.21648
-215.92016
-187.23091
-231.99244
-242.68181
-178.77707
-236.09263
-191.82507
-236.104
-191.82928
-242.70187
-231.98749
-180.56866
-215.95792
-187.21451
-215.9198
-187.23102
-231.99105
-112.81764
-73.408667
-73.413703
-112.81323
-158.88745
-160.44667
-191.71967
-140.04898
-191.70209
-140.05579
-158.89155
-118.80244
-75.216509
-78.242213
-103.90313
-78.236138
-103.90897
-118.80691
-225.1606
-257.75568
-257.66963
-225.19437
-112.80644
-73.392263
-73.397185
-112.8005
-158.88536
-160.44512
-191.71342
-140.04448
-191.69904
-140.05377
-158.88721
-118.80095
-75.215325
-78.239243
-103.89977
-78.234661
-103.9075
-118.80389
60.603358
145.40477
130.87661
115.09859
130.69912
115.09803
60.733623
-5.645403
-54.7183
-54.727628
-5.6380822
60.604914
145.40633
130.8678
115.09704
130.70166
115.09734
60.737696
-334.58234
-323.27907
-295.35899
-292.61969
-323.28427
-295.40245
-334.5562
-345.58848
-350.19039
-296.92717
-301.77741
-350.12851
-301.66259
-345.72972
-345.4394
-301.5065
-350.03576
-296.91723
-350.082
-301.57318
-345.37877
-334.6796
-292.64906
-323.33143
-295.56291
-323.3071
-295.48377
-334.76487
-199.04633
-176.97536
-183.70475
-166.3286
-176.97192
-183.70698
-199.04689
-225.13637
-257.56566
-257.61532
-225.11811
-210.63814
-178.39809
-178.37968
-210.65894
-222.15278
-247.18885
-226.02739
-209.26209
-247.12937
-209.2556
-222.16389
-210.60708
-178.35491
-178.35668
-210.59211
-222.13039
-209.23982
-247.01472
-225.99455
-247.04634
-209.24331
-222.12378
-199.05372
-166.33866
-176.98803
-183.71805
-176.98226
-183.71367
-199.05474
-5.6424961
-54.742914
-54.743714
-5.6424118
15.505844
76.411132
76.525394
15.512436
15.508494
76.549274
76.543971
15.504138
-285.35708
-218.59782
-168.5375
-130.17121
-218.60098
-168.51656
-285.38271
-402.21866
-402.24295
-364.342
-393.01034
-330.06279
-297.58493
-297.55804
-393.17428
-364.31857
-378.77076
-209.83602
-209.90758
-378.78173
-364.35072
-297.53281
-393.44305
-330.12087
-297.54872
-364.36893
-393.3543
-378.79586
-209.90534
-209.90408
-378.82022
-285.32184
-130.15269
-218.60348
-168.44659
-218.59322
-168.47869
-285.30039
-285.34793
-218.59244
-168.53857
-130.1615
-285.37877
-218.59014
-168.5169
-402.21797
-402.24577
-364.31914
-393.04137
-330.05171
-297.5533
-297.5322
-393.1997
-364.28954
-378.78958
-209.83061
-209.9092
-378.77397
-364.33877
-297.52316
-393.44438
-330.10952
-364.36391
-297.52995
-393.36493
-378.81261
-209.90507
-378.82727
-209.90704
-285.31053
-130.1409
-218.58798
-168.44137
-218.58007
-168.47652
-285.2815
-381.28666
-340.6078
-368.69761
-337.15828
-340.65891
-368.70675
-381.25747
-394.15626
-400.79642
-345.10918
-348.82021
-348.70407
-400.75009
-394.29575
-394.01379
-348.54211
-400.67647
-345.10125
-348.61302
-400.72234
-393.95176
-381.39897
-337.19114
-340.83179
-368.78628
-340.74819
-368.75132
-381.49514
-338.95632
-315.65121
-352.93886
-322.53912
-315.68089
-352.94606
-338.92014
-322.93962
-310.21095
-290.51552
-298.46185
-298.38906
-310.18586
-323.03032
-322.82105
-298.25136
-310.12792
-290.46308
-298.29768
-322.78573
-310.13846
-339.03495
-322.52048
-315.72377
-352.99575
-315.70027
-352.97337
-339.08891
-381.29305
-340.61155
-368.70103
-337.15853
-381.26192
-340.6637
-368.70847
-394.15293
-400.78174
-345.09567
-348.80833
-400.7394
-348.69859
-394.28672
-394.01868
-348.54315
-400.66787
-345.08453
-400.71127
-393.95528
-348.61413
-381.39838
-337.18722
-340.82564
-368.78496
-340.74593
-368.7493
-381.49237
-338.95449
-315.64756
-352.93728
-322.53381
-338.91793
-315.67478
-352.94356
-322.93517
-310.20549
-290.5118
-298.45618
-298.38431
-310.18127
-323.02356
-322.82409
-298.25241
-310.1267
-290.46507
-322.78871
-298.29688
-310.13594
-339.03368
-322.51574
-315.72252
-352.99719
-315.69684
-352.97166
-339.08942
-242.08145
-225.96305
-220.56916
-209.14615
-225.96678
-220.57205
-242.08298
-268.25517
-300.33831
-300.39309
-268.23487
-264.98577
-290.06182
-268.08412
-251.47846
-251.47103
-290.00013
-265.00535
-253.87389
-222.55585
-222.54469
-253.90515
-264.95732
-251.4513
-289.87495
-268.04873
-251.45459
-289.91069
-264.95492
-253.84173
-222.5184
-222.5238
-253.82068
-242.09625
-209.16132
-225.98551
-220.58573
-225.98018
-220.58572
-242.1018
-170.91238
-165.29599
-194.88121
-182.60684
-165.30211
-194.88236
-170.91238
-159.97076
-123.93217
-159.9645
-123.92776
-174.76379
-209.32512
-209.31092
-174.76334
-174.76102
-209.29879
-209.29839
-174.76125
-170.92877
-182.61957
-165.3244
-194.89738
-165.31535
-194.89414
-170.94067
-242.07683
-225.96125
-220.56781
-209.13993
-242.08166
-225.96204
-220.56721
-268.24764
-300.33831
-300.38813
-268.23456
-264.97764
-290.03263
-268.07425
-251.47212
-289.97685
-251.4652
-264.99557
-253.86379
-222.54598
-222.53548
-253.88632
-264.95276
-251.44986
-289.87161
-268.04344
-289.89907
-264.95322
-251.45024
-253.83682
-222.51771
-253.82135
-222.518
-242.08838
-209.15326
-225.97889
-220.5765
-225.97425
-220.57754
-242.09232
-170.90985
-165.29355
-194.87888
-182.59942
-170.91177
-165.29616
-194.87635
-159.96996
-123.93282
-159.96465
-123.92817
-174.7628
-209.31849
-209.30409
-174.75992
-174.76087
-209.29902
-174.76185
-209.29416
-170.92385
-182.61029
-165.3157
-194.88786
-165.30763
-194.88548
-170.93465
-62.638804
-106.66488
-106.65444
-62.641592
-43.471951
9.723232
9.838442
-43.459378
-43.468741
9.8971455
9.8655591
-43.463586
-62.639563
-106.66528
-106.6544
-62.642352
-43.472474
9.7256184
9.8415827
-43.46104
-43.468732
9.899673
-43.464196
9.8697487
-227.98407
-111.69109
-167.75088
-81.009552
-111.6723
-167.7559
-228.00089
-343.45632
-343.4858
-317.16043
-145.97874
-146.05212
-317.14458
-309.10502
-340.1787
-280.15387
-246.93725
-340.32478
-246.91133
-309.08994
-317.17889
-146.03642
-146.04548
-317.19024
-309.10478
-246.88363
-340.55931
-280.20887
-340.48969
-246.89916
-309.11559
-227.95607
-80.99398
-111.60737
-167.75904
-111.63618
-167.75077
-227.92877
-227.97331
-111.68964
-167.74475
-81.000403
-227.99493
-111.67126
-167.74463
-343.44957
-343.48146
-317.15234
-145.98362
-146.05201
-317.13645
-309.09333
-340.18331
-280.12342
-246.90545
-246.88083
-340.327
-309.07317
-317.17326
-146.0356
-317.18592
-146.04765
-309.09353
-246.87046
-340.55462
-280.18031
-309.10976
-246.87389
-340.48082
-227.94183
-80.983317
-111.60132
-167.7457
-111.63365
-167.73748
-227.91661
-295.29016
-308.61187
-272.57326
-279.16046
-308.61885
-272.60552
-295.24601
-279.80513
-267.18604
-248.08096
-256.03215
-267.15477
-255.95751
-279.89294
-279.68322
-255.81527
-267.10081
-248.02463
-267.10417
-255.86335
-279.64305
-295.36516
-279.14333
-308.64852
-272.65041
-308.63402
-272.62672
-295.41077
-334.57128
-323.27409
-295.36267
-292.61513
-334.55579
-323.27072
-295.40406
-345.55309
-350.13169
-296.89233
-301.73505
-350.09014
-301.63959
-345.67224
-345.43707
-301.50748
-350.0304
-296.88756
-345.38287
-350.06813
-301.57053
-334.65192
-292.63993
-323.33544
-295.53302
-323.30113
-295.46775
-334.72858
-295.28997
-308.61016
-272.57103
-279.15655
-295.24632
-308.61577
-272.6025
-279.80053
-267.18017
-248.07571
-256.028
-255.95465
-267.15108
-279.88587
-279.68597
-255.81647
-267.10042
-248.02491
-279.64721
-255.86251
-267.10391
-295.37232
-279.14461
-308.67187
-272.65773
-308.64492
-272.63081
-295.424
-125.59572
-150.60843
-121.02171
-139.37537
-150.60989
-121.02989
-125.58833
-112.81608
-73.415972
-73.411511
-112.81535
-128.42173
-164.62708
-164.61545
-128.4185
-128.41754
-164.58538
-164.59828
-128.41244
-125.61368
-139.38885
-150.6331
-121.05281
-150.6254
-121.04384
-125.62097
-199.04118
-176.97395
-183.70343
-166.32419
-199.04462
-176.96807
-183.70334
-225.12789
-257.56404
-225.11532
-257.60231
-210.6259
-178.38833
-178.37121
-210.649
-222.14427
-247.15906
-226.01209
-209.25311
-247.10341
-209.24745
-222.15618
-210.59852
-178.35404
-210.58929
-178.3514
-222.12251
-209.23631
-247.00889
-225.98371
-222.12024
-247.03002
-209.23543
-199.04852
-166.33455
-176.98438
-183.71401
-176.97824
-183.71013
-199.04971
-125.5911
-150.6067
-121.0198
-139.36946
-125.58719
-150.6049
-121.02467
-112.80653
-73.413613
-112.81377
-73.397696
-128.41316
-164.61638
-164.60805
-128.40748
-128.41072
-164.58476
-128.41091
-164.59408
-125.6075
-139.38293
-150.62656
-121.04628
-150.61917
-121.03802
-125.61429
-5.6418357
-54.738211
-5.6426958
-54.726946
15.506772
76.411759
76.525601
15.514047
15.508892
76.551643
15.503819
76.545032
-39.868819
-39.859683
-94.591589
-94.588359
-94.585737
-94.580445
-39.852037
-39.842949
-39.85574
-39.855967
63.456176
88.538167
88.574337
63.452271
63.476072
88.616303
88.621463
63.474456
-94.564843
-94.570191
-9.3575261
9.5511382
9.5702148
-9.3591879
-9.2828877
9.7403279
9.7261587
-9.2781693
-94.56372
-94.569542
-9.3528722
9.5548047
9.5740551
-9.3550787
-9.2834502
9.7401548
9.7257956
-9.278692
-39.843901
-39.849362
63.456157
88.530145
88.567356
63.451676
63.475713
88.617597
88.622659
63.474997
20.955914
20.559693
299.9575
636.04153
636.60673
300.17432
20.430101
20.490494
299.88589
636.87134
636.70321
299.82919
-39.865579
-39.867733
-20.478566
-2.0732401
-2.0815194
-20.470571
-20.481753
-2.0974285
-20.488174
-2.087335
-40.606234
-41.036356
263.91349
622.0895
622.58809
264.16035
-41.180351
-41.110434
263.82812
622.8268
622.6698
263.76304
-40.606129
-41.035271
263.91436
622.08009
622.56351
264.16005
-41.181402
-41.110274
263.83199
622.81029
263.76854
622.63901
-94.580833
-94.583005
-77.842548
-62.296132
-62.312117
-77.834618
-77.840604
-62.316064
-77.842108
-62.315892
30.321072
40.103189
40.084212
102.77392
342.8944
343.12775
102.76564
40.098758
30.361437
40.096841
102.81264
343.15843
102.82585
343.14459
-94.575133
-94.577363
-77.843503
-62.299792
-62.31596
-77.834751
-77.841221
-62.318392
-77.841343
-62.319571
30.321632
40.108656
40.087784
102.77653
342.88504
343.12148
102.7705
40.096652
30.359245
40.096127
102.81093
343.16445
102.82293
343.14093
20.957
20.557807
299.95413
636.02981
636.57794
300.1712
20.432766
20.489298
299.88802
636.8546
299.83728
636.66876
130.82461
109.24238
109.09056
171.29528
353.57683
353.88562
171.38975
108.96206
130.77284
109.00082
171.25827
353.95971
353.92004
171.24012
-39.849022
-39.852617
-20.468582
-2.0660451
-2.0731859
-20.461229
-20.472361
-2.0920764
-20.480755
-2.0794799
130.81304
109.24047
109.08903
171.28603
353.5742
353.88744
171.38029
108.95995
130.76676
108.99737
171.25027
353.96485
353.92262
171.23716
-39.854516
-39.851253
-20.485904
-2.1026827
-2.0965809
-20.488817
-20.482251
-2.0942691
-20.479489
-2.0947378
39.511784
17.811224
17.798118
39.525739
63.479742
88.590937
88.567456
63.482195
39.509324
17.778178
17.786224
39.513759
39.510308
17.775291
17.779024
39.512116
63.477793
88.627096
88.628514
63.478628
39.513979
17.785469
17.783875
39.520594
-94.562924
-94.564591
-77.839095
-62.312083
-62.31421
-77.841128
-77.834549
-62.309648
-77.831514
-62.314286
-28.132583
-45.70668
-45.725036
-28.123108
-9.3362963
9.6342482
9.5820141
-9.3266045
-28.13364
-45.737802
-45.735209
-28.13231
-28.10065
-45.72096
-45.723828
-28.101084
-9.2960043
9.6918889
9.7116088
-9.3142206
-28.106466
-45.726297
-45.724924
-28.117373
-94.561973
-94.561941
-77.838945
-62.312069
-77.840839
-62.315236
-77.835435
-62.312556
-77.832012
-62.316919
-28.130342
-45.708144
-45.726713
-28.121646
-9.3325949
9.6360813
9.5853204
-9.3233818
-28.131629
-45.738891
-45.737074
-28.129913
-28.098956
-45.721714
-28.101004
-45.724999
-9.2967439
9.6919323
9.7113562
-9.3134909
-28.105081
-45.728437
-45.727225
-28.116534
-39.840631
-39.837652
-20.480651
-2.1004613
-20.485693
-2.0923726
-20.476166
-2.090428
-20.473795
-2.0899831
39.519207
17.819914
17.807929
39.532571
63.479744
88.585544
88.562009
63.480792
39.516702
17.784773
17.795618
39.519711
39.516273
17.777376
39.514566
17.783465
63.475867
88.623042
88.627446
63.47651
39.520423
17.790413
17.789006
39.525753
328.56206
322.66019
529.08092
277.62962
277.71491
529.7247
328.52106
307.21632
316.75048
264.30349
520.27237
264.39816
520.88833
307.19783
307.21233
316.74412
264.30052
520.26347
264.39425
520.87086
307.19386
328.55659
322.65287
529.07066
277.62573
277.71034
529.70554
328.51552
250.44737
146.76225
146.76081
119.84948
142.60882
142.62128
119.83925
250.44497
146.76207
146.75977
119.84776
142.60655
142.62023
119.83663
253.93094
159.32157
159.32466
127.83
145.75095
145.76505
127.82419
253.92883
159.32129
159.32355
127.82865
145.7488
145.7643
127.82179
328.59032