/*--------------------------------*- C++ -*----------------------------------*\
| =========                 |                                                 |
| \\      /  F ield         | OpenFOAM: The Open Source CFD Toolbox           |
|  \\    /   O peration     | Version:  2406                                  |
|   \\  /    A nd           | Website:  www.openfoam.com                      |
|    \\/     M anipulation  |                                                 |
\*---------------------------------------------------------------------------*/
FoamFile
{
    version     2.0;
    format      ascii;
    arch        "LSB;label=32;scalar=64";
    class       surfaceScalarField;
    location    "91";
    object      phi;
}
// * * * * * * * * * * * * * * * * * * * * * * * * * * * * * * * * * * * * * //

dimensions      [0 3 -1 0 0 0 0];

oriented        oriented;

internalField   nonuniform List<scalar> 
32736
(
2.6669872
0.00049283855
2.6644538
0.0025334013
2.6605856
0.0038682271
2.6595356
0.0010500622
2.6597138
-0.00017816045
2.6601141
-0.00040019939
2.6606824
-0.00056827375
2.6613708
-0.00068838788
2.6621381
-0.000767257
2.6629111
-0.00077289944
2.6586999
0.0042112703
2.6593738
-0.00067384771
2.6599878
-0.00061389535
2.6604507
-0.00046287872
2.6658821
-0.0054313638
2.6658771
5.114263e-06
2.665656
0.00022125996
2.6652158
0.00044021707
2.6763105
-0.011094615
2.6754521
0.00085852628
2.6745513
0.00090093582
2.6736537
0.0008976423
2.6727914
0.00086242006
2.6719859
0.0008056183
2.6712497
0.00073629157
2.6705862
0.00066360488
2.6699972
0.00058907002
2.6694774
0.0005198811
2.6690223
0.00045522849
2.6686257
0.00039664869
2.6682795
0.00034623361
2.6679778
0.00030181256
2.6677148
0.00026307364
2.6674842
0.00023065858
2.667279
0.00020520786
2.6670967
0.00018238579
2.6669329
0.00016388151
2.6667815
0.00015139383
2.666641
0.00014051689
0.00013136219
2.6681248
-0.00020495665
2.6697477
0.00091053961
2.6687027
0.0049132893
2.6626072
0.0071456356
2.6612016
0.0012274207
2.6605054
0.00029604592
2.6607844
-0.00084719961
2.6614284
-0.0013322815
2.6622016
-0.0015404533
2.6630191
-0.0015903327
2.6588421
0.0083883532
2.6594708
-0.0013025223
2.6600906
-0.0012335921
2.6605714
-0.0009436447
2.6660147
-0.010874519
2.6660066
1.3272232e-05
2.671108
-0.0048800538
2.6763728
-0.0048244739
2.6763295
-0.01105117
2.6754406
0.0017474852
2.6745196
0.0018220071
2.6736121
0.0018052654
2.6727488
0.0017258478
2.6719478
0.0016066763
2.6712203
0.0014638555
2.6705685
0.0013155733
2.66999
0.0011676477
2.6694828
0.0010271894
2.6690397
0.00089837239
2.6686524
0.0007840751
2.6683164
0.00068233765
2.6680236
0.00059470849
2.6677672
0.00051948531
2.667542
0.00045590414
2.6673441
0.00040322312
2.6671667
0.0003597671
2.6670057
0.00032497229
2.6668586
0.00029844224
2.6667199
0.00027923499
0.00026691051
2.6675425
-0.00039639768
2.6691183
-0.00066526458
2.6735344
0.00049719991
2.6772592
0.0034208754
2.6747683
0.0037183951
2.6646651
0.010399316
2.6614636
0.0023543399
2.6615754
-0.0014440011
2.662334
-0.0022990046
2.6632584
-0.0025147195
2.6740702
-0.002423327
2.6598517
0.012915978
2.6604917
-0.001873508
2.6610255
-0.0014773578
2.6664939
-0.016342789
2.6741332
-0.0076259198
2.6813597
-0.012106386
2.6900008
-0.01346554
2.6765145
0.0024352582
2.6755488
0.0027132937
2.6745717
0.0027992385
2.6736271
0.0027499535
2.672744
0.0026090719
2.6719383
0.0024124291
2.6712142
0.0021879993
2.6705733
0.0019566079
2.6700092
0.0017318331
2.6695173
0.0015191649
2.6690885
0.0013272995
2.6687176
0.0011551078
2.6683947
0.0010053137
2.6681145
0.00087497738
2.6678692
0.00076487608
2.6676534
0.00067174585
2.6674623
0.00059439573
2.6672913
0.00053075261
2.6671364
0.0004798524
2.6669949
0.00043980075
2.6668656
0.00040850032
0.000385936
2.6673798
-0.00052018263
2.66776
-0.0010454243
2.6697165
-0.0014592479
2.6743418
-0.001204387
2.6783514
-0.00029114689
2.6794736
0.0092771344
2.6667199
0.01510805
2.6622359
0.0030400518
2.6625554
-0.0026183744
2.6635128
-0.0034720494
2.6645671
-0.0034776128
2.6604288
0.017054346
2.6611977
-0.0026422521
2.6628597
-0.0031392408
2.676788
-0.030271038
2.6771902
-0.008027942
2.6775373
-0.012453375
2.6779049
-0.013833031
2.6768535
0.0034867335
2.6757555
0.0038114116
2.6746829
0.0038719577
2.6736789
0.0037540854
2.6727648
0.0035232351
2.6719473
0.003230046
2.6712275
0.0029078903
2.6705997
0.0025844661
2.6700575
0.0022740966
2.6695871
0.0019897044
2.6691828
0.0017317533
2.6688334
0.0015045676
2.6685316
0.0013071685
2.6682698
0.001136866
2.668043
0.00099176499
2.6678428
0.00087200629
2.6676663
0.00077089319
2.6675081
0.00068893736
2.6673641
0.00062390321
2.6672299
0.00057397491
2.6671021
0.00053630942
0.00051516957
2.6672583
-0.0006374512
2.6674951
-0.001282198
2.6679768
-0.0019409326
2.6693507
-0.0025782039
2.6720851
-0.0030255483
2.6813776
-1.5342304e-05
2.6835114
0.012974317
2.6648411
0.021710429
2.6629966
-0.00077384721
2.6638738
-0.0043492172
2.6651068
-0.0047105426
2.6613638
0.020797498
2.6669178
-0.0081961814
2.6809934
-0.017214756
2.6839195
-0.033197016
2.6876154
-0.011723658
2.6801901
-0.0050279259
2.6786154
-0.012258177
2.6773173
0.0047849079
2.6760263
0.005102524
2.6748215
0.005076859
2.6737358
0.0048399158
2.6727779
0.004481183
2.6719483
0.0040597595
2.6712349
0.0036214314
2.670626
0.0031933968
2.6701071
0.0027931247
2.6696653
0.0024315807
2.6692882
0.0021089615
2.6689655
0.0018272925
2.6686894
0.0015833409
2.66845
0.0013763601
2.6682402
0.0012015741
2.6680578
0.001054431
2.6678952
0.00093364172
2.667749
0.00083517503
2.6676167
0.00075625947
2.6674965
0.00069425405
2.6673859
0.00064694785
0.00060754412
2.6671161
-0.000744549
2.6673322
-0.001498285
2.667668
-0.002276629
2.668183
-0.0030932013
2.669074
-0.0039165025
2.6725823
-0.0035236525
2.6789534
0.006603273
2.6694362
0.031227708
2.6640833
0.0045790734
2.6643931
-0.0046589741
2.6659363
-0.0062535511
2.6955974
-0.0088635406
2.676357
0.011044344
2.6788333
-0.019690913
2.6821356
-0.036499282
2.6858252
-0.015413052
2.6972953
-0.016497897
2.6795062
0.0055310536
2.677858
0.0064331812
2.6763176
0.0066430981
2.674954
0.0064406073
2.6737781
0.0060159289
2.6727821
0.005477375
2.6719489
0.004893022
2.6712566
0.0043139033
2.6706809
0.0037692136
2.670202
0.0032721104
2.6698029
0.0028307783
2.6694661
0.0024458904
2.6691812
0.0021122459
2.6689379
0.0018267459
2.6687281
0.0015862075
2.6685479
0.0013818058
2.6683882
0.0012141942
2.6682465
0.0010754504
2.6681198
0.00096205464
2.6680021
0.00087400791
2.6678914
0.00080515258
2.6677809
0.00075756061
0.00073417592
2.6669524
-0.00083489883
2.6671397
-0.0016855325
2.6674355
-0.0025724697
2.6678596
-0.0035172518
2.6684809
-0.00453778
2.6703894
-0.0054320779
2.679621
-0.0026283331
2.6943404
0.016508425
2.6735171
0.025402339
2.6661378
0.0027204723
2.6683506
-0.008466273
2.6756845
-0.016197367
2.675905
0.010823931
2.6781456
-0.021931416
2.6815023
-0.039855913
2.6822153
-0.016125886
2.6826991
-0.016981612
2.6805027
0.0077276385
2.6783692
0.0085669644
2.6765107
0.0085017545
2.6749601
0.0079914315
2.6736906
0.0072855812
2.6726645
0.0065036529
2.6718424
0.0057153072
2.6711853
0.0049711148
2.6706578
0.0042967928
2.6702296
0.0037005182
2.6698791
0.0031813819
2.6695901
0.0027350743
2.6693483
0.0023541576
2.6691421
0.0020330577
2.6689666
0.001761817
2.6688122
0.0015364009
2.6686779
0.0013485767
2.6685578
0.0011957099
2.6684474
0.0010726722
2.6683479
0.00097373979
2.668257
0.00089627489
2.6681787
0.00083590661
0.00077988503
2.6667732
-0.00090412378
2.6669177
-0.0018299232
2.6671514
-0.0028062129
2.6675003
-0.0038660764
2.6680043
-0.0050417703
2.6689239
-0.006351599
2.6736259
-0.0073302804
2.692883
-0.0027487259
2.7022354
0.016050042
2.6775922
0.027363788
2.6742835
-0.0051574761
2.6763191
-0.018232752
2.6771528
0.0099902898
2.6801489
-0.024927442
2.6841772
-0.043884064
2.6846125
-0.016561136
2.6846729
-0.017041791
2.6815559
0.010844779
2.6787965
0.011326681
2.6765884
0.010710193
2.6748644
0.0097156679
2.6735303
0.0086199624
2.6725133
0.0075208485
2.6717419
0.0064868312
2.6711544
0.0055587949
2.6707024
0.0047489215
2.6703484
0.0040547517
2.6700681
0.0034618244
2.6698409
0.0029623583
2.6696535
0.0025417843
2.6694961
0.0021905528
2.6693614
0.0018967149
2.6692451
0.001652886
2.66914
0.0014538746
2.6690466
0.001289364
2.6689607
0.0011588459
2.6688798
0.0010547815
2.6687982
0.00097805095
2.6687083
0.00092592984
0.00090581207
2.6665801
-0.00094621295
2.6666673
-0.0019170907
2.666817
-0.0029558419
2.667058
-0.0041071205
2.6674295
-0.0054131741
2.668002
-0.0069240852
2.6693485
-0.0086767867
2.6766336
-0.010033799
2.6978492
-0.0051654249
2.7087608
0.01645231
2.6778068
0.025796771
2.6773132
-0.017739027
2.678941
0.0083626184
2.6830594
-0.02904582
2.6879658
-0.04879038
2.6876934
-0.016288495
2.6868194
-0.016167619
2.6823102
0.015354349
2.6787616
0.014875591
2.6761929
0.013279319
2.6743349
0.011574009
2.6729983
0.0099568023
2.6720514
0.0084679731
2.6713839
0.0071545874
2.6709065
0.0060363282
2.6705583
0.0050972723
2.6703001
0.0043130996
2.6701017
0.0036603679
2.6699447
0.0031194972
2.6698164
0.0026702092
2.6697102
0.0022968672
2.6696175
0.0019895491
2.6695341
0.0017365145
2.6694605
0.0015275625
2.6693924
0.0013576656
2.6693296
0.0012217842
2.6692697
0.001114749
2.6692169
0.0010308521
2.6691772
0.0009656562
0.00090751902
2.6663779
-0.0009531473
2.6663951
-0.0019342603
2.6664372
-0.0029979142
2.6665281
-0.0041979808
2.666712
-0.0055970929
2.6670586
-0.0072706416
2.6676845
-0.0093026541
2.6693668
-0.011715985
2.6767212
-0.012519744
2.6915023
0.0016714714
2.6828961
0.034403223
2.6790882
-0.013930579
2.7177397
-0.030289059
2.6875045
0.0011897077
2.693594
-0.054879346
2.6915629
-0.014257385
2.6891634
-0.013767453
2.6827133
0.021804681
2.6783004
0.019288886
2.6754387
0.016141457
2.6735458
0.01346728
2.6723118
0.011191123
2.671531
0.0092490196
2.6710406
0.0076452471
2.6707304
0.0063466257
2.6705298
0.0052980337
2.670398
0.0044450464
2.6703053
0.0037531764
2.6702369
0.0031879606
2.670183
0.002724204
2.6701345
0.0023454243
2.6700913
0.0020329361
2.6700501
0.0017777756
2.6700079
0.001569879
2.669966
0.0013996383
2.669924
0.0012638042
2.6698821
0.0011565948
2.6698366
0.0010762905
2.6697759
0.0010263071
0.0010191877
2.6661774
-0.00091857381
2.6661122
-0.0018690037
2.6660235
-0.0029091885
2.6659265
-0.0041009549
2.6658563
-0.0055268554
2.6658733
-0.0072876637
2.6660917
-0.0095210803
2.6667894
-0.012413604
2.6701737
-0.015903761
2.6867845
-0.014938923
2.7125603
0.008628136
2.6852742
0.01335513
2.6885291
-0.033543099
2.6944519
-0.0047325245
2.7018057
-0.062232683
2.6956113
-0.0080619342
2.6902978
-0.0084537085
2.6814616
0.03064137
2.6764659
0.024284888
2.6735999
0.019007942
2.6719133
0.015154321
2.6709855
0.012119221
2.6705119
0.0097227852
2.6702847
0.0078726377
2.6701904
0.0064409878
2.6701672
0.0053212739
2.6701752
0.0044371509
2.6701972
0.0037311177
2.6702218
0.0031633271
2.6702424
0.0027036398
2.6702583
0.0023295332
2.6702673
0.00202412
2.6702705
0.0017746406
2.670269
0.0015715085
2.6702609
0.0014078069
2.6702497
0.0012749319
2.670236
0.0011702258
2.670225
0.0010871825
2.6702325
0.0010187295
0.00095216639
2.6659902
-0.00084132345
2.6658352
-0.0017139218
2.6656003
-0.0026743589
2.6652893
-0.0037898576
2.6649085
-0.0051460888
2.6644879
-0.0068670312
2.6641061
-0.0091392555
2.6639426
-0.012250056
2.6646533
-0.016614137
2.6705272
-0.020812215
2.6896974
-0.01054198
2.6851687
0.017884567
2.6947211
-0.043095158
2.7099558
-0.019966343
2.7160532
-0.068328833
2.7001605
0.0078311727
2.6897654
0.0019420624
2.6780637
0.042343346
2.6730693
0.02927944
2.6706533
0.021424417
2.6696162
0.016191939
2.6693401
0.012395627
2.6693925
0.0096705865
2.6695667
0.0076985348
2.6697743
0.0062334198
2.6699748
0.0051207692
2.6701511
0.0042608926
2.6702967
0.0035854431
2.6704128
0.0030472686
2.6705028
0.0026136515
2.6705705
0.0022618356
2.6706196
0.0019751231
2.6706532
0.0017411551
2.6706744
0.0015503591
2.6706866
0.0013956313
2.6706902
0.0012712855
2.6706875
0.0011729347
2.670677
0.0010976258
2.6706499
0.001045788
0.0010218769
2.6658296
-0.00072200732
2.6655865
-0.0014708152
2.665207
-0.0022948559
2.6646709
-0.0032537807
2.6639519
-0.0044270753
2.6630219
-0.0059370424
2.6618669
-0.0079842459
2.6605324
-0.010915468
2.6592792
-0.015360644
2.6598795
-0.021411814
2.6705878
-0.021250128
2.68544
0.003032429
2.697545
-0.0074265451
-0.020202504
-0.0074496703
-0.020121218
2.7326323
-0.028968604
0.0015995435
-0.028989604
0.0013058097
2.7443716
0.01219296
-0.052372961
0.012416114
-0.052303847
2.7128989
0.0093787835
0.010275269
0.0093777058
0.010272634
2.6844743
0.011453058
0.0037309979
0.011351255
0.0038317512
2.6711491
0.01638461
0.011451399
0.016382685
0.011449856
2.6667191
0.033709783
2.6654297
0.022714126
2.6656362
0.015985816
2.6663182
0.01171396
2.6670354
0.0089535557
2.667682
0.0070520571
2.6682367
0.0056788673
2.668696
0.0046614531
2.6690674
0.0038895818
2.6693634
0.0032894879
2.6695974
0.0028133312
2.6697809
0.002430168
2.6699237
0.0021190556
2.6700342
0.0018647204
2.6701191
0.0016563064
2.6701838
0.0014856873
2.6702326
0.0013467841
2.6702692
0.0012347669
2.6702964
0.0011457607
2.6703189
0.0010751641
2.6703491
0.0010156495
0.00095224412
2.6657094
-0.00056742669
2.6653916
-0.00115306
2.6648867
-0.0017899473
2.6641517
-0.0025188453
2.6631192
-0.0033945821
2.6616868
-0.0045046256
2.6597009
-0.0059983278
2.6569379
-0.0081523857
2.653125
-0.011547289
2.648943
-0.01722999
2.6534748
-0.025781586
0.66224096
-0.0051228381
0.66939359
0.66218792
0.6694784
0.0017861578
-0.0051264589
0.0016693501
0.66276596
-0.0079521449
3.5165317e-07
0.67787148
-0.039384064
5.2277176e-07
-0.66745642
-0.68897692
0.68839945
0.012768937
1.8285942e-06
-0.69308384
0.68583116
0.01662967
1.9724209e-06
-0.67976852
0.68558212
0.0056381102
1.6728461e-06
-0.66699374
0.66501744
0.018360414
6.247119e-07
2.6533408
0.0093959328
-0.6633959
-0.66217777
-0.6634049
-0.66217597
0.0063651376
0.0093962314
0.00636629
2.6569681
0.019087328
2.6596875
0.013266696
2.6617266
0.00967509
2.6632295
0.0074508672
2.6643501
0.0059315189
2.665195
0.0048340829
2.6658368
0.0040197457
2.6663273
0.0033991931
2.6667043
0.0029126269
2.6669948
0.0025229002
2.6672189
0.0022061706
2.6673918
0.0019461573
2.6675249
0.0017315462
2.6676272
0.0015540414
2.6677053
0.001407485
2.6677647
0.0012874831
2.6678087
0.0011907948
2.6678402
0.0011143939
2.6678595
0.0010560582
2.6678613
0.0010140359
0.00098603227
2.6656415
-0.00038927162
2.6652742
-0.00078583118
2.6646852
-0.0012010019
2.6638153
-0.0016489632
2.6625661
-0.0021454348
2.6607734
-0.0027119
2.6581551
-0.0033800958
2.6542027
-0.0041999568
2.6479243
-0.0052689819
2.637419
-0.0067244666
0.65627099
-0.0088395396
0.65394037
0.65631679
0.65394867
0.65723758
-0.0060891467
-1.5644399e-07
-3.1175139e-08
0.012013958
-0.66800104
0.16389571
0.16218444
0.16219186
0.16400757
0.0038644302
-0.0018316957
-0.0019561936
0.0036310918
0.012641578
-0.16269488
-7.8186331e-07
0.16374108
-0.013686981
-0.17711116
-0.0094866846
2.7897132e-06
0.17637259
0.010222539
-0.1764077
-0.0086132849
4.3052588e-07
0.17290676
0.01211384
-0.16453572
-0.0075971153
4.9084462e-07
0.16198854
0.010143849
-0.16367514
0.65290775
-3.604227e-07
-0.16367351
-0.16271011
-0.16270617
0.0056372174
0.0056388912
0.004322521
0.0043227151
-0.020063723
-0.6546258
0.65567787
0.008343766
1.2015964e-07
2.596042
0.0088532752
-0.65407516
-0.63882774
-0.65407778
-0.63882711
2.6022731
0.0070358498
2.6062131
0.00573526
2.6088764
0.0047876309
2.6107368
0.0040712574
2.6120633
0.0035076539
2.613031
0.0030521124
2.6137529
0.0026774098
2.6143005
0.0023651711
2.614721
0.0021024355
2.6150471
0.0018799973
2.615302
0.0016911914
2.6155024
0.0015310841
2.6156606
0.0013958768
2.6157855
0.0012825973
2.6158842
0.0011888959
2.6159623
0.0011129026
2.6160237
0.0010531806
2.6160713
0.0010086721
2.6161063
0.00097914044
0.00096470959
2.6656334
-0.00020305144
2.6652494
-0.00040188451
2.6646335
-0.00058513341
2.6637235
-0.00073906432
2.6624159
-0.00083785899
2.6605378
-0.00083387115
2.6577906
-0.00063301151
2.653634
-4.3371383e-05
2.647013
0.0013518788
2.6358796
0.0044084903
0.6534682
0.0092454102
0.65540131
0.65347654
0.65544816
0.0026754471
0.64986854
0.00092419083
-1.3554095e-07
0.00093163756
-0.16030542
0.15929363
7.96346e-05
4.7649373e-07
0.00050265588
-0.038343887
-3.9460801e-06
-0.0015847144
0.01058841
0.0091792797
0.0091484984
0.010513735
-0.036306365
-0.0019691369
-3.1861778e-06
-0.0016628044
0.15086879
-0.036315751
-0.037304455
-0.037307115
-0.62926576
-0.0035533731
0.63433847
-0.0015197377
2.9272962e-07
2.5972112
-0.0022827632
-0.63934557
-0.65369724
-0.63934015
-0.65369225
2.6039416
0.00030541699
2.6081097
0.0015672062
2.6108839
0.002013484
2.6128028
0.0021524158
2.6141608
0.0021496476
2.6151457
0.0020673129
2.6158775
0.0019456877
2.6164315
0.0018111559
2.6168573
0.0016765706
2.6171888
0.0015485016
2.6174497
0.0014302231
2.6176571
0.0013236662
2.6178232
0.0012297679
2.6179574
0.0011484901
2.6180666
0.0010797836
2.6181561
0.0010235523
2.6182301
0.00097927547
2.618292
0.00094690937
2.6183457
0.00092546737
0.00091213656
2.6656856
-2.4779711e-05
2.6653192
-3.5609861e-05
2.6647361
-2.041934e-06
2.6638852
0.00011175766
2.6626857
0.00036155656
2.6610118
0.00083997133
2.6586693
0.0017093222
2.6553597
0.0032660861
2.6506669
0.0060442908
2.6449955
0.010079449
2.6471847
0.0070554178
0.66752269
-0.022676952
1.7441242e-05
0.0075452575
1.3824835e-05
0.0074256899
0.65989089
0.66760988
0.65983514
-0.0054408915
0.67108759
0.0018754968
1.4389641e-07
-0.010761228
0.67713128
0.033469313
-2.0428734e-06
-0.66225544
-0.010793313
-0.013395225
-0.013393484
0.011357837
-0.69480709
0.69718696
-0.022936286
1.36607e-06
0.011310484
-0.0010374747
-0.0010760001
0.0095286721
-0.6972793
0.68167664
-0.022735007
-8.3162279e-08
0.009534705
0.0096344486
0.0096396107
0.0092430242
-0.66951686
0.66077606
-0.011062105
7.6298794e-07
0.0092491788
0.00060309072
0.0007066394
0.01291762
-0.65874898
0.65853816
-0.012705856
-8.9213856e-07
2.6479844
-0.017250969
0.0035708137
0.0011184137
0.0035697932
0.0011159002
-0.65932503
-0.66073306
-0.6593164
-0.66073417
2.6543262
-0.0086249479
2.6585268
-0.0038954541
2.6614326
-0.0013387727
2.6634675
-2.1538487e-05
2.664933
0.00068682309
2.6660108
0.0010718877
2.6668149
0.0012631399
2.6674222
0.0013382544
2.6678862
0.0013470252
2.6682437
0.0013189468
2.6685209
0.0012712576
2.6687368
0.0012142118
2.668906
0.0011544667
2.6690391
0.0010967046
2.6691441
0.0010435289
2.6692271
0.00099688891
2.6692929
0.00095773093
2.6693442
0.00092797679
2.6693813
0.00090985959
2.6693969
0.00090983947
0.00094269022
2.665792
0.00013177895
2.6654718
0.00028446324
2.6649697
0.00049994775
2.664254
0.00082742783
2.6632795
0.0013359961
2.6619883
0.0021310755
2.6603174
0.0033800644
2.6582302
0.005353114
2.6558527
0.0084214052
2.6547905
0.011140951
2.663637
-0.0017916732
2.6767882
-0.035829023
2.6843175
0.025889698
-0.0016411602
-0.015099906
-0.0016665945
-0.015012326
2.7172639
-0.0044720432
-0.023803983
0.0097398282
-0.023827276
0.0094160569
2.7236186
0.063155289
0.024082163
-0.059004412
0.024339413
-0.058928082
2.6854799
-0.025194228
0.014631793
0.017048335
0.014618268
0.017033713
2.6689813
0.063524726
0.0053683689
-0.028887705
0.0050434495
-0.028550801
2.6607346
-0.029437049
0.011741789
0.0071004647
0.011741884
0.0070990748
2.6599536
-0.016470929
2.6611173
-0.0097893347
2.663007
-0.0057855637
2.6648303
-0.0031623549
2.6663329
-0.0015243465
2.667539
-0.00051942109
2.6685067
0.00010404563
2.66928
0.00048970354
2.6698967
0.00072141125
2.6703896
0.00085396065
2.670785
0.0009233084
2.6711037
0.00095241273
2.6713619
0.00095595164
2.6715722
0.00094426194
2.6717451
0.00092390202
2.6718885
0.00090021296
2.6720088
0.0008765729
2.6721108
0.00085572238
2.6721991
0.00083956838
2.6722803
0.00082857596
2.6723691
0.00082091586
0.00080741532
2.6659408
0.00025774612
2.6656865
0.00053866697
2.6652949
0.00089146029
2.664755
0.0013672061
2.6640559
0.0020349726
2.6631981
0.0029888515
2.6622119
0.0043660608
2.6612093
0.0063554745
2.6607553
0.0088750949
2.6652654
0.0066303458
2.6837626
-0.020289667
2.6771035
-0.029170235
2.6839173
0.019075579
2.7006469
-0.021201726
2.7060356
0.057766612
2.6897457
-0.0089044789
2.6762578
0.077012167
2.6680969
-0.021277016
2.6659669
-0.014341573
2.6656656
-0.0094887009
2.666203
-0.0063233197
2.6670956
-0.0040553304
2.6680145
-0.0024434135
2.6688392
-0.0013443123
2.6695476
-0.00060447562
2.6701416
-0.00010444286
2.6706333
0.0002295468
2.6710363
0.00045087807
2.6713662
0.00059329893
2.6716364
0.0006821057
2.67186
0.00073242383
2.6720439
0.00076039583
2.6721981
0.00076971698
2.6723267
0.00077158161
2.6724351
0.00076808785
2.6725292
0.00076152955
2.6726089
0.00075976601
2.6726774
0.0007599243
2.6727239
0.00077443362
0.00081085012
2.6661196
0.00034812986
2.6659381
0.00071998408
2.665667
0.0011624754
2.6653123
0.0017218726
2.6648868
0.0024603749
2.6644267
0.0034487951
2.6640103
0.0047823099
2.6638643
0.0065013236
2.6662161
0.0065229281
2.6829686
-0.010122671
2.7117479
-0.049069047
2.6811942
0.0013829817
2.6823378
0.01793193
2.6898063
-0.028670059
2.6940474
0.053525547
2.6893513
-0.0042083081
2.7675156
-0.0011525981
2.6727109
0.073527497
2.6698993
-0.011530622
2.6687712
-0.0083611454
2.6684713
-0.0060237184
2.6686443
-0.004228608
2.6690383
-0.0028376361
2.6694983
-0.0018044032
2.6699509
-0.0010571846
2.6703703
-0.00052402963
2.6707411
-0.00014133348
2.6710647
0.00012722268
2.6713448
0.00031320563
2.6715848
0.0004420458
2.6717892
0.00052808192
2.6719657
0.00058384717
2.672115
0.00062041863
2.6722452
0.00064130267
2.6723593
0.00065389642
2.6724591
0.00066159063
2.6725512
0.00066765365
2.6726394
0.00067160473
2.6727425
0.00067132896
0.00064979743
2.6663129
0.00040321442
2.6662048
0.00082795579
2.6660504
0.0013167894
2.6658652
0.0019069507
2.6656787
0.0026467994
2.6655382
0.003589132
2.6655374
0.0047829733
2.6664226
0.0056160042
2.6726478
0.00029749453
2.6866753
-0.024150434
2.677823
-0.040217212
2.6751339
0.0040721799
2.7248479
-0.031782084
2.6840595
0.012118496
2.6871391
0.050446136
2.6842646
-0.001333824
2.6855059
-0.002393844
2.674993
0.084039943
2.6722639
-0.0088018473
2.6708764
-0.0069739574
2.6702247
-0.0053722752
2.6700265
-0.004030588
2.6701023
-0.0029136493
2.6703142
-0.0020164111
2.6705848
-0.0013278601
2.6708648
-0.00080417268
2.6711378
-0.00041434506
2.6713877
-0.00012271362
2.6716122
8.867458e-05
2.6718113
0.00024288724
2.6719861
0.0003533526
2.6721386
0.00043132455
2.6722722
0.00048673401
2.6723885
0.00052501434
2.6724918
0.00055058395
2.6725834
0.00057004657
2.6726668
0.0005843198
2.6727404
0.00059807282
2.6727961
0.00061572435
0.00064473973
2.6665114
0.00042571624
2.6664675
0.00087174891
2.666416
0.0013682474
2.6663747
0.0019480984
2.6663768
0.0026446197
2.6664751
0.0034907691
2.667228
0.0040298908
2.6737815
-0.00093764215
2.6940926
-0.02001378
2.7020407
-0.032098744
2.6675531
-0.0057295259
2.6652525
0.0063725357
2.6670966
-0.033626111
2.6732786
0.005936618
2.679123
0.04460189
2.678508
-0.0007186975
2.6762041
-9.0130773e-05
2.6757421
0.084501964
2.6734867
-0.0065466808
2.672128
-0.0056154875
2.6713402
-0.0045846979
2.6709319
-0.0036224912
2.6707807
-0.0027625561
2.6707899
-0.0020257586
2.670887
-0.0014250422
2.6710302
-0.00094744413
2.671191
-0.00057516936
2.6713561
-0.00028785933
2.6715139
-6.9100189e-05
2.6716624
9.4287671e-05
2.6717986
0.00021715474
2.671923
0.00030694715
2.6720356
0.00037413412
2.6721389
0.000421819
2.6722334
0.00045620842
2.6723208
0.00048277556
2.6724031
0.00050217664
2.6724844
0.0005169268
2.6725722
0.00052796434
0.00052732821
2.666702
0.0004216557
2.6667147
0.00085895587
2.6667469
0.001335913
2.6668189
0.001876013
2.6669616
0.0025018192
2.6674321
0.003020188
2.6715863
-0.00012437748
2.6901776
-0.019529066
2.6987782
-0.028614509
2.6726784
-0.005999018
2.6632577
0.0036908902
2.6641875
0.0054428324
2.6612814
-0.030719924
2.6630421
0.0041759184
2.668923
0.038721172
2.668133
7.1387382e-05
2.6667402
0.0013027924
2.6758972
0.075344765
2.6741431
-0.0047926355
2.6729272
-0.0043996823
2.6721257
-0.00378338
2.6716278
-0.0031246961
2.6713516
-0.0024865171
2.6712335
-0.0019077257
2.6712161
-0.0014077426
2.6712618
-0.00099325359
2.6713442
-0.00065761127
2.6714462
-0.00038986139
2.6715569
-0.00017984681
2.6716675
-1.6411132e-05
2.6717773
0.00010731729
2.6718806
0.00020364145
2.6719804
0.00027435568
2.6720731
0.00032915803
2.6721614
0.00036798844
2.672245
0.00039927728
2.6723232
0.00042403882
2.672396
0.00044424249
2.6724567
0.00046729185
0.00049943498
2.6668811
0.00039553755
2.6669379
0.00080204004
2.6670352
0.0012384987
2.6671924
0.0017187026
2.6674728
0.0022213827
2.6689632
0.0015296044
2.677689
-0.008850264
2.6918304
-0.033670579
2.6703682
-0.0071524023
2.6622791
0.0020900355
2.6621342
0.003835876
2.6635963
0.003980573
2.659852
-0.026975522
2.6609871
0.0030408719
2.6666999
0.033008419
2.6663534
0.00041801522
2.6657525
0.0019037091
2.6756745
0.065422917
2.6743506
-0.0034687987
2.6733266
-0.0033757732
2.6725821
-0.0030390032
2.672063
-0.0026057385
2.6717246
-0.0021482062
2.6715242
-0.001707456
2.6714226
-0.0013062391
2.6713892
-0.00095994099
2.6714012
-0.00066967968
2.6714428
-0.00043150427
2.6715017
-0.00023881007
2.6715723
-8.712015e-05
2.671646
3.3554292e-05
2.6717243
0.00012529494
2.6718014
0.00019719455
2.6718791
0.00025146741
2.6719534
0.0002937083
2.6720267
0.00032601396
2.6720998
0.00035099728
2.6721724
0.00037158157
2.6722517
0.0003880995
0.00039627469
2.6670436
0.00035086414
2.6671333
0.00071224079
2.667281
0.0010907682
2.66754
0.0014595957
2.66811
0.0016513193
2.6712289
-0.0015894362
2.6771446
-0.014766052
2.6671223
-0.023648398
2.661205
-0.0012351481
2.6609284
0.0023666469
2.6618932
0.002870917
2.6881985
-0.02232467
2.6588215
0.0024014842
2.6595593
0.0023031305
2.6651617
0.02740617
2.6650548
0.00052501801
2.6649408
0.0020179339
2.6753474
0.055016278
2.6743654
-0.0024867757
2.6735301
-0.0025405493
2.6728695
-0.0023785034
2.6723695
-0.0021058291
2.6720086
-0.0017874089
2.6717611
-0.0014599901
2.671604
-0.0011493076
2.6715155
-0.00087146755
2.6714762
-0.00063042371
2.6714723
-0.00042766365
2.6714947
-0.00026129069
2.6715334
-0.00012595366
2.6715842
-1.7324876e-05
2.6716419
6.7531511e-05
2.6717052
0.00013393399
2.671771
0.00018557429
2.6718391
0.00022563171
2.6719072
0.00025790165
2.6719753
0.00028285523
2.6720441
0.00030275496
2.6721091
0.00032313587
0.00034473329
2.667186
0.00029477686
2.6673012
0.00059697507
2.6676002
0.00079172816
2.6687333
0.00032639432
2.6711654
-0.00078087447
2.6800954
-0.010519534
2.6818202
-0.01649089
2.6626959
-0.0045241693
2.6603657
0.0010949824
2.6607474
0.0019848277
2.6615065
0.0021118926
2.6573539
-0.01817214
2.6579365
0.0018189376
2.658544
0.0016957016
2.6640849
0.021865424
2.6641049
0.00050513647
2.664294
0.0018289191
2.6750058
0.044304621
2.674271
-0.0017519743
2.673592
-0.00186157
2.6730137
-0.0018002681
2.6725447
-0.0016368728
2.6721788
-0.001421633
2.6719066
-0.0011878632
2.6717123
-0.00095513651
2.6715828
-0.00074199969
2.6715025
-0.00055017927
2.671461
-0.00038626668
2.6714489
-0.00024924706
2.6714582
-0.00013536953
2.6714845
-4.3651201e-05
2.6715232
2.8813617e-05
2.6715695
8.7584421e-05
2.6716222
0.00013279175
2.6716786
0.00016917231
2.6717394
0.00019713203
2.6718034
0.00021877549
2.6718683
0.00023785734
2.6719379
0.00025348953
0.0002638159
2.6673088
0.00022894718
2.6675721
0.00033358246
2.6693551
-0.0009913231
2.6737481
-0.0040667388
2.6774728
-0.0045056613
2.6782609
-0.011307712
2.6651331
-0.0033631133
2.6602376
0.00037128899
2.6601263
0.0012061922
2.6606579
0.0014532411
2.6613131
0.0014566464
2.6568403
-0.013699286
2.6573549
0.0013043053
2.6578545
0.0011962993
2.6633527
0.01636726
2.6634479
0.00041018065
2.6638625
0.0014144068
2.6747239
0.033443284
2.6741635
-0.0011915014
2.6736068
-0.0013048482
2.6731001
-0.0012936509
2.6726639
-0.0012007223
2.672306
-0.0010638008
2.6720206
-0.00090252894
2.6718044
-0.00073901205
2.6716451
-0.00058285124
2.671536
-0.00044111509
2.671467
-0.00031738438
2.6714285
-0.00021076395
2.6714177
-0.00012463344
2.6714259
-5.2012333e-05
2.6714486
6.0999553e-06
2.6714836
5.2552368e-05
2.6715274
8.8911503e-05
2.671578
0.00011847395
2.6716338
0.00014129335
2.6716923
0.00016024325
2.6717551
0.00017505282
2.6718201
0.00018847612
0.00020235182
2.6674724
9.454179e-05
2.6689344
-0.0011285525
2.6731825
-0.0052395048
2.6766856
-0.0075699155
2.6739232
-0.0017433317
2.6635075
-0.00089201956
2.6599543
0.00018997599
2.6596908
0.00063474321
2.6600633
0.00083361216
2.6606082
0.0009083977
2.6710597
-0.0089948418
2.6565658
0.00079455066
2.6569964
0.0008738523
2.6574212
0.00077146949
2.6628912
0.010897592
2.6630276
0.00027374527
2.6634883
0.00095392639
2.6745319
0.022399732
2.6740835
-0.00074292034
2.6736106
-0.00083192412
2.6731569
-0.00083994915
2.6727479
-0.00079179917
2.6723941
-0.00071012829
2.6721014
-0.00060992824
2.6718673
-0.00050496898
2.6716884
-0.00040403899
2.6715558
-0.00030860493
2.6714648
-0.00022644603
2.6714082
-0.00015425522
2.6713776
-9.4153448e-05
2.6713695
-4.3972166e-05
2.67138
-4.4714848e-06
2.6714039
2.8529811e-05
2.6714377
5.5049976e-05
2.6714812
7.4935383e-05
2.6715317
9.0877349e-05
2.6715875
0.00010442317
2.6716465
0.00011595667
2.6717114
0.00012357564
0.00013098886
2.6680531
-0.00054763416
2.6695674
-0.0026428538
2.6683569
-0.0040290957
2.6620474
-0.001260545
2.6603823
-7.822452e-05
2.6593839
0.00010633241
2.6593311
0.00024272666
2.65962
0.00034573277
2.6600336
0.00042003366
2.6605025
0.00043948499
2.656016
-0.0045083861
2.6563823
0.00042836784
2.656816
0.0004400289
2.6572085
0.00037923504
2.6626607
0.0054453187
2.6627977
0.00013698329
2.663279
0.00047276177
2.6744485
0.011230424
2.6740651
-0.00035939636
2.6736418
-0.00040857815
2.6732183
-0.00041641237
2.6728232
-0.0003967982
2.6724712
-0.00035824439
2.672172
-0.00031077168
2.6719253
-0.00025835201
2.6717296
-0.00020848379
2.6715814
-0.00016051839
2.6714739
-0.0001189573
2.6714013
-8.1740742e-05
2.6713585
-5.1495148e-05
2.6713411
-2.6686228e-05
2.6713413
-4.7186198e-06
2.6713578
1.1971105e-05
2.6713879
2.4888717e-05
2.6714264
3.6457693e-05
2.6714733
4.402052e-05
2.6715258
5.1877243e-05
2.6715854
5.6290941e-05
2.6716464
6.2595703e-05
6.7354078e-05
2.6669163
2.6642735
2.6602443
2.6589838
2.6589055
2.6590118
2.6592545
2.6596002
2.6600203