/*--------------------------------*- C++ -*----------------------------------*\
| =========                 |                                                 |
| \\      /  F ield         | OpenFOAM: The Open Source CFD Toolbox           |
|  \\    /   O peration     | Version:  2406                                  |
|   \\  /    A nd           | Website:  www.openfoam.com                      |
|    \\/     M anipulation  |                                                 |
\*---------------------------------------------------------------------------*/
FoamFile
{
    version     2.0;
    format      ascii;
    arch        "LSB;label=32;scalar=64";
    class       volVectorField;
    location    "91";
    object      U;
}
// * * * * * * * * * * * * * * * * * * * * * * * * * * * * * * * * * * * * * //

dimensions      [0 1 -1 0 0 0 0];

internalField   nonuniform List<vector> 
11524
(
(50.000735 -0.00084544052 3.1860939e-23)
(50.003324 -0.0016923455 0)
(50.008073 -0.0025499082 7.1982398e-22)
(50.014865 -0.0034267168 8.2748824e-22)
(50.02362 -0.004304031 -8.2775955e-22)
(50.034324 -0.0051554705 -9.3567252e-22)
(50.04692 -0.0059403135 8.4789422e-22)
(50.061225 -0.0066043066 1.527222e-21)
(50.076899 -0.0070743798 -1.4476627e-21)
(50.093413 -0.0072611994 -2.1657967e-21)
(50.110009 -0.0070658286 4.7026682e-21)
(50.12576 -0.0064262885 -2.5402461e-21)
(50.139546 -0.0053014384 -1.6966984e-21)
(50.150252 -0.0037322704 1.5869154e-21)
(50.156955 -0.0018608592 1.4278458e-20)
(50.159095 0.00012814066 -1.8156366e-21)
(50.156663 0.0019955231 1.81564e-21)
(50.150173 0.0035385479 0)
(50.140562 0.0046798407 0)
(50.128957 0.0053207719 3.8744522e-22)
(50.116366 0.0055741365 1.043712e-23)
(50.10361 0.0055364921 -3.3597391e-22)
(50.091255 0.0053005141 9.3384503e-24)
(50.07965 0.0049419766 -2.4705964e-22)
(50.068989 0.0045194171 0)
(50.059354 0.0040763503 1.1016039e-23)
(50.050748 0.0036430113 -6.2561233e-24)
(50.043124 0.0032387239 -4.7637028e-24)
(50.036404 0.0028744101 -6.0228632e-23)
(50.030494 0.0025550489 0)
(50.025296 0.0022814092 0)
(50.020711 0.002051783 -3.7204925e-23)
(50.016649 0.0018633108 0)
(50.013025 0.0017130707 0)
(50.009763 0.0015985226 0)
(50.006791 0.0015175678 -4.2427893e-24)
(50.004044 0.0014683816 3.172874e-24)
(50.001458 0.0014489596 -2.1982782e-24)
(49.999032 0.0014555381 -5.9753506e-26)
(49.995957 0.0014766983 1.6755293e-25)
(50.000733 -0.0025343774 -3.185335e-23)
(50.003302 -0.0050792496 4.708774e-23)
(50.008025 -0.0076527425 -7.1735863e-22)
(50.014795 -0.010277513 0)
(50.023569 -0.012930005 -8.5950131e-22)
(50.034354 -0.015536854 8.7561561e-23)
(50.047113 -0.017967437 0)
(50.061695 -0.020039693 -7.9119984e-23)
(50.077792 -0.021527799 1.9709083e-22)
(50.094895 -0.022158843 2.451803e-22)
(50.112221 -0.021606254 0)
(50.128802 -0.019708896 0)
(50.143412 -0.016295504 -1.923867e-21)
(50.154788 -0.011488018 1.6327041e-21)
(50.161886 -0.0057117745 -1.4248747e-20)
(50.164019 0.00042354076 0)
(50.161196 0.0061772042 -1.8189604e-21)
(50.154022 0.01089398 1.8153822e-21)
(50.143642 0.014263178 -1.2610781e-23)
(50.131288 0.016163655 -3.7176263e-22)
(50.118093 0.016868159 7.0521427e-22)
(50.104901 0.016692053 2.9747365e-22)
(50.09226 0.015924426 2.1904644e-24)
(50.08049 0.01479449 7.8066001e-22)
(50.069753 0.013476255 3.9656768e-22)
(50.060108 0.012097005 2.1756925e-23)
(50.051536 0.01074379 -1.2368505e-23)
(50.043974 0.0094711683 2.7275213e-22)
(50.037329 0.0083096906 5.906447e-23)
(50.031499 0.0072729607 -1.015422e-22)
(50.02638 0.0063627926 -1.0951807e-23)
(50.021871 0.0055737248 1.1468312e-22)
(50.017879 0.0048967464 0)
(50.014321 0.0043221388 -2.6735626e-23)
(50.01112 0.003840654 1.4659218e-24)
(50.008206 0.0034439073 4.2424037e-24)
(50.005514 0.0031245622 -3.0859569e-24)
(50.002977 0.0028770879 6.7068514e-24)
(50.000587 0.0027006671 -1.4531241e-24)
(49.997482 0.0026006773 -1.338567e-25)
(50.000723 -0.0042097666 -9.8516972e-25)
(50.003259 -0.0084523557 -4.6451317e-23)
(50.00793 -0.012758165 1.2152406e-21)
(50.014659 -0.01713881 -1.2546132e-21)
(50.023429 -0.021579741 2.2075153e-21)
(50.034318 -0.025992337 0)
(50.047387 -0.030209558 0)
(50.062525 -0.033898046 0)
(50.079475 -0.036625917 1.8355449e-22)
(50.097764 -0.037915442 1.916689e-21)
(50.116645 -0.037197988 -2.1543173e-21)
(50.134917 -0.034066908 2.9813329e-21)
(50.151277 -0.028243226 -2.6016428e-21)
(50.164087 -0.019884507 -9.0507671e-22)
(50.172024 -0.0097338597 -3.0036006e-20)
(50.174165 0.0010992259 1.5982659e-20)
(50.170495 0.011207446 0)
(50.161881 0.019363912 0)
(50.149825 0.024906374 -2.5734091e-23)
(50.135891 0.027933866 2.5846884e-23)
(50.121452 0.028897065 -2.1331408e-21)
(50.107385 0.028395172 0)
(50.09418 0.026944301 -1.10026e-21)
(50.082084 0.024937402 -1.4450871e-21)
(50.071199 0.022666034 -4.2527119e-22)
(50.061531 0.020338453 0)
(50.053019 0.018092268 2.8904679e-22)
(50.045564 0.016010036 -2.5577251e-22)
(50.039052 0.014135789 -2.1247334e-22)
(50.033364 0.012487452 8.7115693e-23)
(50.028385 0.011065675 -8.207341e-23)
(50.024006 0.0098608241 -7.2441339e-23)
(50.020133 0.0088586882 3.4095541e-24)
(50.016682 0.0080439734 2.3260907e-23)
(50.013577 0.0074013602 1.8456273e-23)
(50.010748 0.0069154792 -8.8676808e-25)
(50.008133 0.0065708994 1.3097469e-23)
(50.005673 0.0063525278 -8.9304021e-24)
(50.003377 0.0062455147 1.4192962e-24)
(50.000552 0.0062275779 3.1420775e-25)
(50.000704 -0.0058523975 -1.4457621e-23)
(50.003176 -0.011765381 2.5766165e-23)
(50.007744 -0.017812876 -6.4203063e-23)
(50.014369 -0.024027192 1.0657902e-22)
(50.02311 -0.030378059 -1.3531781e-21)
(50.03411 -0.036716494 0)
(50.047518 -0.042883059 -3.7226413e-21)
(50.063433 -0.048499296 -1.0118454e-20)
(50.081654 -0.052880851 2.2132346e-21)
(50.101761 -0.055252406 2.1508142e-21)
(50.123026 -0.054773643 -1.5535001e-21)
(50.144117 -0.050473711 0)
(50.163356 -0.042073502 0)
(50.178592 -0.029610584 0)
(50.188022 -0.014188997 3.0761506e-20)
(50.190129 0.0023458873 -1.5919065e-20)
(50.184942 0.017644811 0)
(50.173803 0.029642124 -5.8152068e-23)
(50.15889 0.037372927 5.8391386e-23)
(50.142444 0.041185446 -1.6345014e-21)
(50.126107 0.041983668 1.4246705e-21)
(50.110764 0.04074751 0)
(50.096781 0.03824775 1.0998757e-21)
(50.084278 0.035043795 1.8815291e-21)
(50.073253 0.031542365 0)
(50.063627 0.028026914 -2.0338599e-23)
(50.05527 0.024676187 2.9453596e-22)
(50.048035 0.021589942 -2.4847875e-22)
(50.041773 0.018814521 2.3859958e-22)
(50.036344 0.016361473 -2.3668028e-23)
(50.031616 0.014220966 2.4186861e-22)
(50.027478 0.012372866 7.1999875e-25)
(50.02383 0.010795162 5.8375367e-23)
(50.020589 0.0094675735 -2.7068343e-24)
(50.017679 0.0083715165 1.8772795e-23)
(50.015028 0.0074885407 1.0997869e-24)
(50.012571 0.0067999953 -1.1555239e-23)
(50.010243 0.0062889632 3.7408706e-24)
(50.008029 0.0059455781 0)
(50.005054 0.005765598 -8.8486323e-25)
(50.000671 -0.0074362681 -1.1627306e-23)
(50.003033 -0.0149709 0)
(50.007421 -0.022732604 0)
(50.013844 -0.03080477 -5.7541531e-23)
(50.022445 -0.039188691 9.9136154e-22)
(50.033487 -0.047725901 -1.5054541e-21)
(50.047235 -0.056125093 3.2282201e-20)
(50.063979 -0.064046685 -2.2071774e-20)
(50.083826 -0.070651791 9.4189341e-21)
(50.106421 -0.074761837 2.1228091e-21)
(50.131098 -0.075037248 -2.7180053e-21)
(50.156334 -0.069956112 0)
(50.180068 -0.058863945 0)
(50.199288 -0.041465787 -1.0413258e-21)
(50.210995 -0.019273658 1.3031072e-21)
(50.213045 0.0047436446 8.3679761e-22)
(50.205271 0.026499382 -3.2541205e-21)
(50.189986 0.042950066 3.6784027e-20)
(50.170675 0.052733968 0)
(50.150565 0.056808464 1.6335493e-21)
(50.13163 0.056888443 2.8661002e-21)
(50.114624 0.054493239 -2.5135322e-21)
(50.099664 0.050672364 1.0358153e-23)
(50.086672 0.046138692 -8.6330781e-22)
(50.075506 0.041396633 0)
(50.065967 0.036784698 -6.7212936e-22)
(50.057832 0.032503676 -5.4315343e-22)
(50.050884 0.028655852 2.484304e-22)
(50.044932 0.02527852 0)
(50.039805 0.022365742 1.6638034e-22)
(50.03536 0.019885622 -2.8632947e-22)
(50.031479 0.017796753 -1.2432935e-22)
(50.028065 0.016060216 -5.8014782e-23)
(50.02504 0.014643879 -3.9296166e-23)
(50.022327 0.013520781 -3.9452596e-23)
(50.019857 0.012665785 -1.3731562e-23)
(50.01757 0.012054059 -1.0609243e-23)
(50.015414 0.011661415 0)
(50.013409 0.011463717 2.4265625e-24)
(50.011056 0.01142054 5.7060901e-25)
(50.000618 -0.0089237428 -1.139486e-22)
(50.002802 -0.017997198 -1.2570004e-22)
(50.006889 -0.02742472 1.7561875e-22)
(50.012953 -0.037361274 5.7537091e-23)
(50.02122 -0.047863738 0)
(50.032092 -0.058861634 5.1912049e-22)
(50.046035 -0.070000121 -8.4913379e-21)
(50.0636 -0.080784248 -7.9485307e-21)
(50.085282 -0.090494788 1.6914428e-20)
(50.11102 -0.097423759 0)
(50.140266 -0.099492105 5.4253071e-21)
(50.171606 -0.09436626 -5.3750896e-21)
(50.201855 -0.080333832 0)
(50.227117 -0.056710585 0)
(50.242508 -0.025294983 0)
(50.24428 0.0089868372 0)
(50.232329 0.039404021 0)
(50.21054 0.060682613 -3.4578673e-20)
(50.184678 0.071869194 -2.0745142e-24)
(50.159593 0.075016518 0)
(50.137494 0.07315149 -2.8645013e-21)
(50.118675 0.068509613 4.7904643e-21)
(50.102782 0.062428005 1.9545913e-21)
(50.089452 0.055758758 1.6284722e-21)
(50.078351 0.049084262 4.1557605e-23)
(50.069128 0.042765564 5.9229194e-22)
(50.061444 0.036992284 0)
(50.055007 0.031846617 -4.0822585e-22)
(50.049571 0.02734475 -1.0834816e-23)
(50.044934 0.023457327 -8.2954903e-24)
(50.040934 0.020127616 1.334082e-22)
(50.037452 0.01729158 1.2724071e-22)
(50.034398 0.014891797 0)
(50.031698 0.012881608 4.1723211e-23)
(50.029282 0.011222248 0)
(50.027082 0.0098793332 1.4483898e-23)
(50.025032 0.0088221402 9.8522882e-24)
(50.023069 0.0080259226 2.0229124e-25)
(50.021161 0.0074800271 -2.6284058e-24)
(50.018401 0.0071918262 0)
(50.00054 -0.010262648 6.3806833e-23)
(50.002454 -0.020740147 -3.1034483e-22)
(50.006073 -0.031735212 -1.8045952e-22)
(50.011539 -0.043503434 0)
(50.019185 -0.056203611 2.064432e-22)
(50.029553 -0.069862039 0)
(50.043367 -0.084249672 -2.8693786e-21)
(50.061488 -0.098670778 1.4885381e-20)
(50.084813 -0.11240061 -2.0878296e-20)
(50.114199 -0.12363679 0)
(50.149406 -0.12935836 -2.7241892e-21)
(50.189139 -0.12585747 2.7140988e-21)
(50.229405 -0.1088444 -6.759938e-20)
(50.264152 -0.077124487 0)
(50.285394 -0.032552358 0)
(50.286445 0.016648765 -1.0089671e-19)
(50.267262 0.058829325 9.584415e-20)
(50.234941 0.085809784 0)
(50.199419 0.097392657 0)
(50.167691 0.098337577 3.4260066e-21)
(50.141819 0.093682001 0)
(50.121054 0.086403395 -2.4788612e-21)
(50.104282 0.077993983 -1.8236949e-21)
(50.090755 0.069376053 -1.6280371e-21)
(50.079893 0.061165147 0)
(50.071149 0.053688537 0)
(50.06405 0.047069044 0)
(50.058227 0.041326167 3.8642831e-22)
(50.053388 0.03642619 3.3519386e-24)
(50.049299 0.032300283 1.3281376e-22)
(50.045783 0.02886209 9.35975e-23)
(50.042724 0.026026477 6.5523441e-24)
(50.040041 0.023719693 -2.2758907e-24)
(50.037668 0.021879188 2.2761651e-24)
(50.035544 0.020449948 0)
(50.033606 0.019383268 0)
(50.0318 0.01863868 -8.3544202e-24)
(50.030095 0.018185005 -6.2240544e-24)
(50.028537 0.017992755 1.3474575e-25)
(50.026986 0.017996947 0)
(50.00043 -0.011386229 0)
(50.001961 -0.023063755 1.7279175e-22)
(50.004897 -0.035453813 3.1795812e-22)
(50.009443 -0.048942105 0)
(50.016027 -0.063838348 -9.1416719e-22)
(50.025345 -0.080351476 -2.5611154e-22)
(50.038366 -0.098489211 3.8929691e-22)
(50.056423 -0.11773304 -1.3254342e-22)
(50.081054 -0.13691443 0)
(50.113959 -0.15435197 -2.7258605e-20)
(50.156553 -0.16644192 1.682896e-20)
(50.207818 -0.16703677 1.2509472e-20)
(50.263083 -0.1484354 1.3845105e-19)
(50.313217 -0.10632638 6.2404887e-22)
(50.344206 -0.042058657 4.6496417e-19)
(50.343683 0.029771141 1.0051789e-19)
(50.31203 0.088056996 -9.5305094e-20)
(50.263116 0.1197926 1.1635437e-20)
(50.214063 0.12785001 -9.1737656e-21)
(50.174519 0.12248526 3.6505544e-21)
(50.145091 0.11183436 -1.9062788e-22)
(50.122919 0.099472664 -1.9622209e-21)
(50.105823 0.086785494 -9.5873125e-23)
(50.092657 0.074645458 1.237516e-21)
(50.08256 0.06361258 7.7767922e-23)
(50.074742 0.05389167 -2.6504571e-23)
(50.06859 0.045466346 3.3790843e-22)
(50.063673 0.038235538 -2.5793416e-22)
(50.059666 0.032068339 0)
(50.056321 0.02682547 -4.5575447e-22)
(50.053461 0.022379758 -1.0199651e-22)
(50.050978 0.018627646 -5.9085472e-24)
(50.048802 0.01548488 6.1509407e-23)
(50.046875 0.012874683 0)
(50.045141 0.010721843 -1.509541e-24)
(50.043543 0.0089575196 1.5096632e-24)
(50.042033 0.0075305041 1.4890748e-23)
(50.040554 0.0064177111 6.087895e-24)
(50.039049 0.0056328126 1.4474624e-24)
(50.036455 0.0052112446 0)
(50.000283 -0.01221536 -1.4776591e-22)
(50.001303 -0.024803674 -2.9308717e-22)
(50.003304 -0.038315462 0)
(50.006538 -0.053290929 9.9378348e-23)
(50.011489 -0.070238465 1.1625831e-21)
(50.018968 -0.089638707 0)
(50.030198 -0.1118531 0)
(50.046951 -0.13690007 -5.0953062e-22)
(50.071779 -0.16385077 -3.8654485e-22)
(50.107758 -0.1904111 2.9701802e-20)
(50.158248 -0.21280412 -2.1252875e-20)
(50.224927 -0.22233141 0)
(50.302951 -0.2049536 -1.5782367e-19)
(50.378867 -0.14941948 -1.090044e-19)
(50.426593 -0.053574349 -1.0465686e-18)
(50.421976 0.055283041 1.5872313e-19)
(50.367204 0.13766029 0)
(50.290533 0.17404107 -2.5717394e-20)
(50.221987 0.1752638 9.5888551e-21)
(50.173599 0.16123944 -6.6327409e-21)
(50.141489 0.14372014 -2.6075975e-22)
(50.118901 0.12615053 2.2226793e-21)
(50.102316 0.10949217 0)
(50.090251 0.094485223 -1.2191614e-21)
(50.081533 0.081528452 -4.7784651e-23)
(50.075101 0.070617998 6.3706837e-22)
(50.07021 0.061559743 -3.1754121e-22)
(50.06639 0.054104865 2.5062391e-22)
(50.063313 0.047990902 1.346553e-23)
(50.060748 0.042976924 4.9373317e-23)
(50.058554 0.038877235 0)
(50.056648 0.035564596 -3.3535396e-24)
(50.054974 0.032943242 -5.8146863e-23)
(50.053477 0.030918522 -1.1236754e-24)
(50.0521 0.029385279 1.1237754e-24)
(50.050802 0.028237793 3.2528895e-25)
(50.04957 0.027390441 -6.8624521e-24)
(50.048429 0.026794953 3.7708813e-24)
(50.04748 0.026445599 -1.4471861e-24)
(50.047008 0.026360151 0)
(50.0001 -0.012665253 3.2695186e-22)
(50.000475 -0.025779261 2.931075e-22)
(50.001278 -0.040016797 7.1593389e-22)
(50.002761 -0.056080741 -1.268252e-21)
(50.0054 -0.074716079 0)
(50.010022 -0.096764137 1.0791446e-21)
(50.018002 -0.1231252 -1.9782831e-21)
(50.03155 -0.15457188 1.4086039e-21)
(50.054148 -0.19134203 3.8884579e-22)
(50.091104 -0.2315932 -1.4477676e-20)
(50.149408 -0.27078785 5.7469142e-21)
(50.235735 -0.29889253 2.5412229e-20)
(50.350163 -0.29242487 6.5448192e-20)
(50.469139 -0.21924435 1.1103285e-19)
(50.547445 -0.070667168 1.9831911e-19)
(50.534232 0.096825523 -1.5851232e-19)
(50.438166 0.20633417 1.7531102e-19)
(50.317539 0.23414149 3.2322851e-22)
(50.223594 0.21422802 6.7524949e-21)
(50.16734 0.18329716 0)
(50.134731 0.15466698 -2.138605e-22)
(50.113301 0.1291605 2.1414021e-22)
(50.098462 0.10660173 0)
(50.088569 0.08730804 0)
(50.082096 0.071190864 0)
(50.077729 0.057834509 -5.8922289e-22)
(50.074637 0.046809174 0)
(50.072324 0.03772387 0)
(50.070477 0.030204527 -1.0296146e-22)
(50.068911 0.023929824 2.4302402e-22)
(50.067554 0.018675896 -3.9787438e-23)
(50.066375 0.014311447 0)
(50.065335 0.010751567 -3.14259e-23)
(50.064368 0.0079110398 0)
(50.063405 0.0056848611 0)
(50.062409 0.0039573993 0)
(50.061382 0.0026256886 0)
(50.060338 0.0016218332 -3.6390259e-24)
(50.059279 0.00093172053 -8.2288521e-25)
(50.057217 0.00060366344 4.3283913e-26)
(49.999886 -0.012656202 3.1382717e-23)
(49.999501 -0.025815958 -4.2341911e-22)
(49.998866 -0.04024874 -7.1603359e-22)
(49.998176 -0.056800407 -8.5270175e-23)
(49.997789 -0.076456734 7.9873036e-22)
(49.998379 -0.10047651 -1.850994e-21)
(50.001226 -0.13047035 -1.5247359e-21)
(50.008716 -0.16838254 -2.2341158e-21)
(50.025188 -0.21629846 0)
(50.058106 -0.27519832 0)
(50.120187 -0.34109737 0)
(50.22789 -0.4035757 -6.589645e-20)
(50.396295 -0.42663939 8.9574858e-20)
(50.596869 -0.33304645 -2.907096e-20)
(50.729244 -0.080618179 3.8039318e-19)
(50.688377 0.20437762 0)
(50.509427 0.36006109 -1.7539308e-19)
(50.318498 0.36331228 4.4553935e-20)
(50.197593 0.30288324 -9.5590634e-21)
(50.14142 0.24564114 0)
(50.114128 0.20218018 1.277927e-22)
(50.096937 0.1673845 -1.2798142e-22)
(50.085876 0.13918767 0)
(50.07954 0.11699937 1.0785732e-22)
(50.076102 0.099748137 -1.139983e-23)
(50.074198 0.086261007 -4.8913762e-23)
(50.073105 0.075654988 -3.6982275e-24)
(50.072401 0.067271934 3.5576837e-23)
(50.071823 0.060571056 6.9187006e-23)
(50.071271 0.055126034 -1.0881889e-22)
(50.070772 0.050646096 3.9785845e-23)
(50.070369 0.046957439 1.6128922e-23)
(50.070047 0.043954404 3.2361941e-23)
(50.069732 0.041554575 0)
(50.069339 0.039677224 2.7804341e-25)
(50.068831 0.038243368 -3.6265742e-25)
(50.068237 0.037185015 8.4602823e-26)
(50.06766 0.036452346 1.486263e-24)
(50.067306 0.036015833 6.4857337e-25)
(50.067918 0.035851887 0)
(49.999654 -0.012129665 -2.1059032e-22)
(49.99844 -0.024778901 4.2347344e-22)
(49.99621 -0.038752177 -4.7289364e-22)
(49.993031 -0.05497753 5.3114663e-22)
(49.989006 -0.074623068 9.803247e-22)
(49.984408 -0.099329109 -4.8959407e-22)
(49.98 -0.13147168 -2.2443076e-21)
(49.977659 -0.17448596 8.2923921e-21)
(49.981645 -0.23329914 -9.5691242e-23)
(50.000968 -0.31394188 1.3025843e-21)
(50.054391 -0.42053029 8.6527055e-22)
(50.180087 -0.54931799 -6.6096966e-20)
(50.432285 -0.6499369 2.4494698e-20)
(50.79612 -0.55756168 1.9615078e-19)
(51.04497 -0.13145363 0)
(50.942944 0.31580853 -4.4614665e-19)
(50.596581 0.51033769 5.8345009e-19)
(50.28467 0.46063169 -3.4546845e-20)
(50.136623 0.34484592 2.6211376e-21)
(50.095367 0.25616609 1.6848651e-21)
(50.082665 0.19446088 0)
(50.074761 0.14802849 0)
(50.071094 0.11234326 4.900619e-22)
(50.070902 0.085199815 -5.313794e-22)
(50.072141 0.064532349 -5.0552931e-24)
(50.073662 0.048634333 6.0327321e-23)
(50.075089 0.036283641 0)
(50.076234 0.026609602 -3.510057e-23)
(50.076984 0.018973345 3.6997922e-23)
(50.07738 0.012903264 1.8334528e-23)
(50.077572 0.0080497942 6.5383795e-24)
(50.077696 0.0041488662 -1.6476868e-23)
(50.077791 0.00099812046 -5.886567e-25)
(50.077814 -0.0015533623 -6.1903939e-25)
(50.077701 -0.0036083929 2.929093e-24)
(50.077423 -0.0052265096 -1.1454772e-24)
(50.07701 -0.0064351013 1.0830227e-25)
(50.076512 -0.0072479568 -1.594312e-24)
(50.07595 -0.0076899793 -1.4564552e-25)
(50.074495 -0.0078476104 4.0355537e-26)
(49.999425 -0.011067073 5.6508738e-24)
(49.997391 -0.022615014 1.2836691e-22)
(49.993557 -0.035394605 5.6252908e-22)
(49.987802 -0.050307394 -1.6172455e-21)
(49.979845 -0.06855757 5.7762836e-22)
(49.969285 -0.091966626 2.3431908e-21)
(49.955804 -0.12344111 3.1511364e-21)
(49.939646 -0.16777972 -3.3690615e-21)
(49.92281 -0.23324852 7.0947037e-21)
(49.912648 -0.3337976 9.1011965e-21)
(49.92901 -0.49181064 -7.8510435e-21)
(50.045465 -0.74210734 7.2632794e-06)
(50.401755 -1.0446713 -5.3246707e-06)
(51.054828 -0.86297607 -9.8335825e-05)
(51.499655 0.10043825 -0.00029850749)
(51.258689 0.80123281 -1.4023016e-05)
(50.640933 0.87836533 -6.3285102e-05)
(50.173979 0.62993866 3.1555779e-08)
(50.018185 0.44275777 -8.6881949e-08)
(50.010261 0.32445715 9.2272128e-21)
(50.020663 0.2459073 0)
(50.026696 0.19372489 6.1075368e-23)
(50.032857 0.15843895 6.3112653e-22)
(50.039934 0.13340554 1.3486478e-21)
(50.046545 0.11488774 3.5104411e-22)
(50.052076 0.10080664 0)
(50.05655 0.089807945 0)
(50.060065 0.080994968 7.7001988e-23)
(50.062712 0.073835534 -6.5810884e-24)
(50.064651 0.068013851 4.2627226e-23)
(50.066094 0.063286047 -6.5403136e-24)
(50.067215 0.059412784 6.3804787e-25)
(50.068099 0.056165491 -6.3807736e-25)
(50.068763 0.053362199 0)
(50.069203 0.050894608 -2.4607197e-24)
(50.069448 0.048730074 1.2959415e-24)
(50.069569 0.046890416 6.2343767e-26)
(50.069672 0.045419283 -9.1046104e-26)
(50.069898 0.044356376 1.7436525e-25)
(50.070916 0.04370683 -4.0359085e-26)
(49.999227 -0.0095072492 -6.3278719e-23)
(49.996481 -0.019394527 -6.7991052e-23)
(49.991239 -0.030254244 -4.1730663e-22)
(49.983173 -0.042816748 -6.5534887e-22)
(49.971563 -0.058089359 -6.4443625e-23)
(49.955164 -0.077671158 7.197372e-22)
(49.932086 -0.10429337 -1.2779026e-21)
(49.899591 -0.14292396 -4.1136151e-21)
(49.853758 -0.2033019 2.2360475e-21)
(49.790909 -0.30553276 -1.2005211e-20)
(49.708436 -0.48965783 -1.8257944e-05)
(49.62443 -0.96144518 -3.4019471e-05)
(49.742167 -1.2917869 -0.33488286)
(50.781802 -1.8885552 0.39390249)
(52.300551 -0.61594634 2.183372)
(52.047358 1.0203135 2.2973375)
(50.829983 1.4918648 1.1794008)
(49.951277 0.97885757 0.06579401)
(49.813629 0.43970371 -4.7946334e-08)
(49.869225 0.28243892 -1.2908714e-07)
(49.915496 0.17710691 0)
(49.946158 0.11240564 0)
(49.966706 0.073552447 -1.1852254e-21)
(49.981489 0.04866536 -2.1269173e-22)
(49.992519 0.031727861 -3.5155528e-22)
(50.000767 0.019826597 1.9201709e-22)
(50.006911 0.011174698 1.424225e-22)
(50.011493 0.0046354629 -1.7949985e-22)
(50.01492 -0.0004037817 0)
(50.017488 -0.0042498035 -3.9831361e-23)
(50.019418 -0.0071173364 0)
(50.020858 -0.0092294773 0)
(50.021901 -0.010813957 5.8430253e-24)
(50.022611 -0.012058825 -1.1096464e-25)
(50.023055 -0.013077661 1.1096717e-25)
(50.023323 -0.013904835 0)
(50.023512 -0.014518188 0)
(50.023687 -0.014877225 -7.6280943e-25)
(50.023838 -0.014973502 -1.9796539e-25)
(50.023628 -0.014898035 -1.9293687e-26)
(49.999089 -0.0075548006 -5.7184657e-23)
(49.995843 -0.01533468 -1.746609e-23)
(49.989612 -0.023680489 -7.8492743e-23)
(49.979914 -0.033010025 1.7912647e-22)
(49.96569 -0.043879698 2.1866973e-22)
(49.945 -0.057156542 -3.9792327e-22)
(49.914524 -0.074317676 1.0647421e-21)
(49.868407 -0.098092392 1.5935826e-21)
(49.795103 -0.13404661 -2.6776986e-21)
(49.674889 -0.19445977 -2.5478103e-21)
(49.413323 -0.30486596 1.8556333e-05)
(49.223904 -0.4837207 -0.76480016)
(48.620277 -1.5518521 -1.2900366)
(49.422062 -3.75768 -0.74395632)
(54.226209 -1.5776085 4.0487692)
(53.497815 1.965802 3.6961412)
(50.978296 2.8881254 1.465313)
(49.022321 1.1010698 -0.84443373)
(49.303856 0.49106045 -0.52299503)
(48.731715 0.33317212 9.9674971e-09)
(48.830934 0.25109004 -1.4296169e-22)
(48.900949 0.19735793 1.0215377e-21)
(48.946061 0.16236902 6.3096199e-23)
(48.975289 0.13812395 -7.1416021e-22)
(48.995512 0.12031688 6.4590436e-24)
(49.010049 0.1067536 -1.7814437e-22)
(49.02061 0.096085511 -1.478067e-22)
(49.028412 0.087434585 1.8606672e-22)
(49.034339 0.080277686 0)
(49.038944 0.074311991 0)
(49.042541 0.069328265 -4.074433e-25)
(49.045314 0.065144478 -1.272849e-23)
(49.047396 0.061595092 -1.1101352e-23)
(49.048918 0.058545174 -9.7796377e-26)
(49.050027 0.055903147 -3.2332831e-24)
(49.050884 0.053620874 -1.1412183e-25)
(49.051636 0.051683057 3.3250214e-26)
(49.052386 0.050094138 7.9573888e-25)
(49.053166 0.04887972 1.8407145e-25)
(49.054196 0.04809493 -4.3431306e-26)
(49.99903 -0.0053719541 -2.0080682e-23)
(49.995573 -0.010785976 2.7234913e-22)
(49.988939 -0.016282855 -8.2734541e-23)
(49.978616 -0.02189342 5.5464437e-22)
(49.963481 -0.027585135 2.3120654e-22)
(49.941465 -0.033203869 -4.2053983e-22)
(49.909025 -0.038317774 5.8812671e-22)
(49.859874 -0.041825699 -1.6271022e-21)
(49.781631 -0.040957771 2.2933133e-21)
(49.652926 -0.028212473 1.3695217e-21)
(49.371879 0.012795939 2.1827219e-05)
(49.088958 0.037481439 -0.9325037)
(48.14155 0.1196143 -1.8683491)
(41.647192 1.2843659 -7.943739)
(45.681007 -0.18234598 -2.303027)
(47.653785 -0.10318319 -0.84661317)
(48.761209 -0.059190631 -1.4847615e-07)
(48.865279 -0.030543123 -2.6953414e-21)
(48.937783 -0.016431021 -9.5131502e-22)
(48.984618 -0.010908896 3.5354114e-23)
(49.014786 -0.0090626172 1.9112586e-23)
(49.03544 -0.0088700626 -2.0586364e-23)
(49.050166 -0.0095325198 1.5350371e-22)
(49.060808 -0.010556574 5.0696724e-23)
(49.068642 -0.011646475 -9.4764802e-23)
(49.074588 -0.012694912 -8.8400368e-25)
(49.079224 -0.013691263 -5.0125534e-24)
(49.082877 -0.014630257 -5.3522445e-25)
(49.085736 -0.01547653 1.2767298e-23)
(49.087936 -0.016174773 4.7877795e-24)
(49.089606 -0.016674173 -2.7575215e-25)
(49.090893 -0.016946986 3.631134e-24)
(49.091953 -0.016994109 -1.5124478e-25)
(49.092933 -0.016840374 2.3034248e-25)
(49.093933 -0.016526861 9.5276914e-26)
(49.09499 -0.016112795 0)
(49.096611 -0.015710944 6.7531299e-26)
(49.999055 -0.0031509981 1.6584852e-22)
(49.995694 -0.0061687244 -6.7195874e-22)
(49.989279 -0.0088093023 1.7061181e-22)
(49.979404 -0.010746717 -3.6566291e-22)
(49.96517 -0.011427878 8.5262275e-22)
(49.944996 -0.0098445223 -1.8182451e-21)
(49.916415 -0.0040752641 -3.0574679e-21)
(49.875652 0.0097035804 5.1785068e-21)
(49.816856 0.039437516 -2.7075334e-21)
(49.732244 0.10285331 2.6897704e-22)
(49.611079 0.23631264 -2.1522606e-05)
(49.446476 0.65073789 -4.5520709e-05)
(49.346301 1.1094652 -0.91509226)
(50.449772 2.5124205 -0.32248198)
(52.65617 0.45388734 2.3420287)
(52.022909 -1.4959023 2.2735953)
(50.302203 -1.6440013 0.60976918)
(49.477911 -0.64693502 -0.66495884)
(49.725891 -0.14899967 1.3662791e-07)
(49.828084 -0.04562383 6.0588005e-07)
(49.896529 0.01961829 2.5621075e-21)
(49.94125 0.053167711 0)
(49.971596 0.067408878 0)
(49.9929 0.07258278 0)
(50.008233 0.073466833 -1.7706987e-23)
(50.019446 0.072100755 -1.1269057e-22)
(50.027721 0.069672928 -3.9303012e-23)
(50.033871 0.066886614 8.802182e-23)
(50.038479 0.064027293 8.9617993e-25)
(50.041971 0.061155752 8.9239993e-24)
(50.044652 0.058304022 2.2563175e-23)
(50.046725 0.055558297 6.6264648e-25)
(50.048318 0.053042175 -7.9722419e-24)
(50.049518 0.050863678 5.9523175e-24)
(50.050412 0.049074959 3.2818093e-25)
(50.051099 0.047662622 1.7674802e-24)
(50.051678 0.046565532 -9.2476851e-26)
(50.052208 0.045709214 -1.3468073e-25)
(50.052649 0.045054407 3.2058976e-25)
(50.05263 0.044643271 -7.7697276e-26)
(49.999152 -0.0010753943 2.1666697e-25)
(49.996149 -0.0018797009 5.0507435e-22)
(49.990471 -0.001952034 -1.4210922e-21)
(49.981893 -0.00071854783 7.2180631e-22)
(49.969893 0.0026830342 0)
(49.953621 0.0096701667 1.8540748e-21)
(49.932032 0.022665253 2.591843e-21)
(49.904173 0.045916441 6.1889599e-22)
(49.870068 0.087049158 4.6510995e-21)
(49.833584 0.15996208 0)
(49.80936 0.28858996 0)
(49.861095 0.51459919 7.7924192e-06)
(50.126516 0.83654561 2.7782987e-05)
(50.684084 0.74939152 -6.9413446e-05)
(51.079472 -0.074090945 -0.00022235519)
(50.853245 -0.64019461 -5.8795496e-05)
(50.309321 -0.62131915 -4.9225682e-05)
(49.953016 -0.35518274 2.6147232e-07)
(49.888873 -0.19598402 3.1148309e-07)
(49.933373 -0.10991805 -7.1960326e-21)
(49.973091 -0.059177508 0)
(49.998836 -0.030791893 2.3387656e-21)
(50.019492 -0.016076213 1.2577384e-22)
(50.03713 -0.0086459316 1.4249274e-21)
(50.051471 -0.0050893525 -5.9609458e-22)
(50.062854 -0.003726269 5.2103954e-22)
(50.071907 -0.0035685392 0)
(50.07908 -0.004016808 -7.2615155e-23)
(50.084706 -0.0047821388 -1.9341939e-24)
(50.089127 -0.0057496234 -8.7081006e-24)
(50.092686 -0.0068377482 -2.1591931e-23)
(50.095651 -0.0079348902 0)
(50.098173 -0.0089114457 -8.1827331e-24)
(50.100314 -0.0096623107 -1.7605089e-23)
(50.10211 -0.01013973 -6.6491761e-25)
(50.103616 -0.010359651 -1.3696336e-24)
(50.104916 -0.010383336 -2.6884719e-24)
(50.106133 -0.010286318 -7.0103987e-25)
(50.107402 -0.010129176 -4.5444223e-25)
(50.109853 -0.0099497272 1.2656586e-25)
(49.9993 0.00071209322 -4.9869724e-22)
(49.996832 0.0017801612 -5.1155357e-22)
(49.992227 0.0037909288 1.7547902e-21)
(49.985448 0.0074356123 7.2084362e-22)
(49.976343 0.013665644 3.1087538e-21)
(49.964721 0.023910488 -1.6011341e-21)
(49.95064 0.040369088 7.1895721e-21)
(49.934913 0.066418004 -3.2440431e-21)
(49.920209 0.10712189 -6.836742e-21)
(49.913152 0.16959496 -3.4763981e-21)
(49.92975 0.2607497 4.5621907e-21)
(50.003961 0.38329048 7.649766e-20)
(50.19082 0.49646903 0)
(50.489099 0.451782 0)
(50.702875 0.10774471 -8.0879187e-19)
(50.609899 -0.25345458 1.2423983e-20)
(50.313731 -0.3785819 -1.0665848e-20)
(50.076289 -0.29123087 5.241675e-21)
(49.99661 -0.17366383 2.2659351e-20)
(50.001947 -0.097746538 6.5281295e-21)
(50.019126 -0.051285975 3.8043085e-21)
(50.032371 -0.01984687 -2.3351847e-21)
(50.044785 0.0016032949 -1.5305052e-21)
(50.056895 0.015717148 -2.7902618e-22)
(50.067564 0.024800214 1.7922829e-21)
(50.076458 0.030536869 -8.9010602e-23)
(50.083787 0.034022563 0)
(50.089737 0.035993064 0)
(50.094459 0.036960692 -6.8771029e-24)
(50.098196 0.037277374 1.2473969e-23)
(50.101252 0.037184479 -1.013058e-23)
(50.103876 0.036855 4.5330039e-24)
(50.106196 0.036418108 1.6570442e-23)
(50.108229 0.035966337 1.0619243e-23)
(50.10996 0.035554742 -1.0178007e-23)
(50.111392 0.035202983 6.2869775e-25)
(50.112577 0.034905529 2.486298e-24)
(50.113579 0.034649841 3.142488e-24)
(50.114392 0.034440204 4.4736763e-26)
(50.114576 0.034320885 -2.2393065e-27)
(49.999473 0.0021248966 3.3253207e-22)
(49.997627 0.0046382891 -1.5070282e-23)
(49.994242 0.0081667389 6.7457392e-22)
(49.989426 0.013408594 -1.3731459e-21)
(49.98331 0.021246592 -5.8053931e-21)
(49.976157 0.0328879 -3.1742785e-21)
(49.968657 0.04999072 -3.3460577e-21)
(49.962393 0.074746085 4.1677986e-21)
(49.960582 0.10978392 -3.9656254e-22)
(49.969439 0.15749989 -6.9939941e-21)
(50.00023 0.21725065 0)
(50.069215 0.28259442 9.4110145e-20)
(50.194162 0.32318506 0)
(50.355486 0.27047382 -2.62132e-21)
(50.466712 0.079171978 4.8622498e-19)
(50.43209 -0.14031109 5.5431478e-20)
(50.282119 -0.24204039 -1.6292201e-20)
(50.141712 -0.21329781 -5.109139e-21)
(50.067402 -0.14565029 -5.8497564e-21)
(50.048659 -0.094395237 0)
(50.04881 -0.061314493 -6.2947527e-21)
(50.052306 -0.038067063 -1.7770236e-22)
(50.057547 -0.021602607 1.7071759e-21)
(50.064188 -0.010726052 -1.3203737e-21)
(50.071091 -0.0039654053 -1.1130103e-21)
(50.077515 1.0301728e-05 -4.9120999e-22)
(50.083239 0.0021001572 2.6891842e-23)
(50.088193 0.0029249916 -3.1055988e-22)
(50.092367 0.0029683531 1.4030378e-22)
(50.095861 0.0025865237 -8.303938e-24)
(50.098861 0.0019953248 -6.0576917e-24)
(50.101534 0.001297815 -3.4055642e-23)
(50.10396 0.0005381702 0)
(50.106136 -0.00025312317 0)
(50.108032 -0.0010396965 9.8068351e-24)
(50.109648 -0.0017804831 -5.880637e-25)
(50.111044 -0.0024383568 1.0652827e-24)
(50.112348 -0.0029858169 -1.4608378e-25)
(50.113747 -0.0034010827 6.2780618e-26)
(50.116595 -0.0036678058 -6.2777374e-26)
(49.99965 0.0031311295 3.2482457e-22)
(49.998432 0.0066411897 -9.8433844e-22)