# vtk DataFile Version 3.0
Time Step 68, Physical Time = 0.000680s, Residual = 5.07e-03
ASCII
DATASET UNSTRUCTURED_GRID
POINTS 5000 float
0.318712 0.385257 0.000000
-0.318712 0.385257 0.000000
-0.318712 -0.385257 0.000000
0.318712 -0.385257 0.000000
0.093691 0.491144 0.000000
-0.093691 0.491144 0.000000
-0.093691 -0.491144 0.000000
0.093691 -0.491144 0.000000
0.404508 0.293893 0.000000
-0.404508 0.293893 0.000000
-0.404508 -0.293893 0.000000
0.404508 -0.293893 0.000000
0.438153 0.240877 0.000000
-0.438153 0.240877 0.000000
-0.438153 -0.240877 0.000000
0.438153 -0.240877 0.000000
0.500000 0.000000 0.000000
-0.500000 -0.000000 0.000000
0.364484 0.342274 0.000000
-0.364484 0.342274 0.000000
-0.364484 -0.342274 0.000000
0.364484 -0.342274 0.000000
0.496057 0.062667 0.000000
-0.496057 0.062667 0.000000
-0.496057 -0.062667 0.000000
0.496057 -0.062667 0.000000
0.212890 0.452414 0.000000
-0.212890 0.452414 0.000000
-0.212890 -0.452414 0.000000
0.212890 -0.452414 0.000000
0.154508 0.475528 0.000000
-0.154508 0.475528 0.000000
-0.154508 -0.475528 0.000000
0.154508 -0.475528 0.000000
0.267913 0.422164 0.000000
-0.267913 0.422164 0.000000
-0.267913 -0.422164 0.000000
0.267913 -0.422164 0.000000
0.031395 0.499013 0.000000
-0.031395 0.499013 0.000000
-0.031395 -0.499013 0.000000
0.031395 -0.499013 0.000000
0.464888 0.184062 0.000000
-0.464888 0.184062 0.000000
-0.464888 -0.184062 0.000000
0.464888 -0.184062 0.000000
0.484292 0.124345 0.000000
-0.484292 0.124345 0.000000
-0.484292 -0.124345 0.000000
0.484292 -0.124345 0.000000
-0.031454 0.499951 0.000000
0.438977 0.241329 0.000000
-0.268417 0.422957 0.000000
0.365169 0.342917 0.000000
-0.496990 -0.062784 0.000000
0.319311 -0.385981 0.000000
0.405269 0.294445 0.000000
-0.093867 0.492067 0.000000
0.500940 -0.000000 0.000000
-0.213290 0.453264 0.000000
-0.154799 0.476422 0.000000
0.031454 0.499951 0.000000
0.465762 0.184408 0.000000
0.319311 0.385981 0.000000
0.365169 -0.342917 0.000000
0.405269 -0.294445 0.000000
-0.365169 0.342917 0.000000
-0.319311 0.385981 0.000000
0.268417 0.422957 0.000000
0.213290 0.453264 0.000000
-0.319311 -0.385981 0.000000
0.154799 -0.476422 0.000000
-0.485202 -0.124579 0.000000
0.154799 0.476422 0.000000
0.268417 -0.422957 0.000000
0.093867 0.492067 0.000000
-0.031454 -0.499951 0.000000
-0.500940 0.000000 0.000000
0.438977 -0.241329 0.000000
-0.438977 -0.241329 0.000000
0.093867 -0.492067 0.000000
-0.485202 0.124579 0.000000
0.485202 0.124579 0.000000
-0.496990 0.062784 0.000000
0.213290 -0.453264 0.000000
0.031454 -0.499951 0.000000
0.496990 -0.062784 0.000000
0.465762 -0.184408 0.000000
-0.465762 -0.184408 0.000000
-0.213290 -0.453264 0.000000
-0.093867 -0.492067 0.000000
-0.405269 -0.294445 0.000000
0.496990 0.062784 0.000000
0.485202 -0.124579 0.000000
-0.154799 -0.476422 0.000000
-0.365169 -0.342917 0.000000
-0.465762 0.184408 0.000000
-0.438977 0.241329 0.000000
-0.405269 0.294445 0.000000
-0.268417 -0.422957 0.000000
-0.031523 0.501039 0.000000
0.439932 0.241854 0.000000
-0.269001 0.423877 0.000000
0.365964 0.343663 0.000000
-0.498071 -0.062921 0.000000
0.320005 -0.386820 0.000000
0.406150 0.295085 0.000000
-0.094071 0.493137 0.000000
0.502029 -0.000000 0.000000
-0.213754 0.454250 0.000000
-0.155136 0.477458 0.000000
0.031523 0.501039 0.000000
0.466775 0.184809 0.000000
0.365964 -0.343663 0.000000
0.406150 -0.295085 0.000000
0.320005 0.386820 0.000000
-0.365964 0.343663 0.000000
-0.320005 0.386820 0.000000
0.269001 0.423877 0.000000
0.213754 0.454250 0.000000
-0.320005 -0.386820 0.000000
0.155136 -0.477458 0.000000
-0.486257 -0.124850 0.000000
0.155136 0.477458 0.000000
0.269001 -0.423877 0.000000
0.094071 0.493137 0.000000
-0.031523 -0.501039 0.000000
-0.502029 0.000000 0.000000
0.439932 -0.241854 0.000000
-0.439932 -0.241854 0.000000
0.094071 -0.493137 0.000000
-0.486257 0.124850 0.000000
0.486257 0.124850 0.000000
-0.498071 0.062921 0.000000
0.213754 -0.454250 0.000000
0.031523 -0.501039 0.000000
0.466775 -0.184809 0.000000
0.498071 -0.062921 0.000000
-0.466775 -0.184809 0.000000
-0.213754 -0.454250 0.000000
-0.094071 -0.493137 0.000000
-0.406150 -0.295085 0.000000
0.498071 0.062921 0.000000
-0.155136 -0.477458 0.000000
0.486257 -0.124850 0.000000
-0.365964 -0.343663 0.000000
-0.466775 0.184809 0.000000
-0.439932 0.241854 0.000000
-0.406150 0.295085 0.000000
-0.269001 -0.423877 0.000000
-0.031604 0.502329 0.000000
0.441064 0.242477 0.000000
-0.269693 0.424969 0.000000
0.366906 0.344547 0.000000
-0.499353 -0.063083 0.000000
0.320829 -0.387816 0.000000
0.407196 0.295845 0.000000
-0.094313 0.494407 0.000000
0.503322 -0.000000 0.000000
-0.214304 0.455419 0.000000
-0.155535 0.478688 0.000000
0.031604 0.502329 0.000000
0.467977 0.185285 0.000000
0.366906 -0.344547 0.000000
0.407196 -0.295845 0.000000
0.320829 0.387816 0.000000
0.269693 0.424969 0.000000
-0.366906 0.344547 0.000000
-0.320829 0.387816 0.000000
0.214304 0.455419 0.000000
-0.320829 -0.387816 0.000000
0.155535 -0.478688 0.000000
-0.487509 -0.125171 0.000000
0.155535 0.478688 0.000000
0.269693 -0.424969 0.000000
-0.031604 -0.502329 0.000000
0.094313 0.494407 0.000000
-0.503322 0.000000 0.000000
0.441064 -0.242477 0.000000
-0.441064 -0.242477 0.000000
-0.487509 0.125171 0.000000
0.094313 -0.494407 0.000000
0.487509 0.125171 0.000000
-0.499353 0.063083 0.000000
0.214304 -0.455419 0.000000
0.031604 -0.502329 0.000000
0.467977 -0.185285 0.000000
0.499353 -0.063083 0.000000
-0.467977 -0.185285 0.000000
-0.214304 -0.455419 0.000000
-0.094313 -0.494407 0.000000
-0.407196 -0.295845 0.000000
0.499353 0.063083 0.000000
-0.155535 -0.478688 0.000000
0.487509 -0.125171 0.000000
-0.467977 0.185285 0.000000
-0.366906 -0.344547 0.000000
-0.441064 0.242477 0.000000
-0.407196 0.295845 0.000000
-0.269693 -0.424969 0.000000
-0.031700 0.503862 0.000000
0.442411 0.243217 0.000000
-0.270517 0.426266 0.000000
0.368026 0.345599 0.000000
-0.500877 -0.063276 0.000000
0.321809 -0.389000 0.000000
0.408439 0.296748 0.000000
-0.094601 0.495916 0.000000
0.504858 -0.000000 0.000000
-0.214958 0.456810 0.000000
-0.156010 0.480149 0.000000
0.031700 0.503862 0.000000
0.469405 0.185851 0.000000
0.368026 -0.345599 0.000000
0.408439 -0.296748 0.000000
0.321809 0.389000 0.000000
0.270517 0.426266 0.000000
-0.368026 0.345599 0.000000
-0.321809 0.389000 0.000000
0.214958 0.456810 0.000000
-0.321809 -0.389000 0.000000
0.156010 -0.480149 0.000000
0.270517 -0.426266 0.000000
-0.488997 -0.125553 0.000000
0.156010 0.480149 0.000000
-0.031700 -0.503862 0.000000
0.094601 0.495916 0.000000
-0.504858 0.000000 0.000000
0.442411 -0.243217 0.000000
-0.442411 -0.243217 0.000000
-0.488997 0.125553 0.000000
0.094601 -0.495916 0.000000
0.488997 0.125553 0.000000
-0.500877 0.063276 0.000000
0.214958 -0.456810 0.000000
0.031700 -0.503862 0.000000
0.469405 -0.185851 0.000000
0.500877 -0.063276 0.000000
-0.469405 -0.185851 0.000000
-0.214958 -0.456810 0.000000
-0.094601 -0.495916 0.000000
-0.408439 -0.296748 0.000000
-0.469405 0.185851 0.000000
0.500877 0.063276 0.000000
-0.156010 -0.480149 0.000000
0.488997 -0.125553 0.000000
-0.368026 -0.345599 0.000000
-0.442411 0.243217 0.000000
-0.408439 0.296748 0.000000
-0.270517 -0.426266 0.000000
-0.031815 0.505686 0.000000
0.444012 0.244098 0.000000
-0.271496 0.427809 0.000000
0.369358 0.346850 0.000000
-0.502691 -0.063505 0.000000
0.322974 -0.390408 0.000000
0.409918 0.297823 0.000000
-0.094943 0.497711 0.000000
0.506686 -0.000000 0.000000
-0.215736 0.458463 0.000000
-0.156575 0.481887 0.000000
0.031815 0.505686 0.000000
0.369358 -0.346850 0.000000
0.409918 -0.297823 0.000000
0.471105 0.186524 0.000000
0.322974 0.390408 0.000000
0.271496 0.427809 0.000000
-0.369358 0.346850 0.000000
-0.322974 0.390408 0.000000
0.215736 0.458463 0.000000
0.156575 -0.481887 0.000000
-0.322974 -0.390408 0.000000
0.271496 -0.427809 0.000000
-0.490768 -0.126008 0.000000
0.156575 0.481887 0.000000
-0.031815 -0.505686 0.000000
0.094943 0.497711 0.000000
-0.506686 0.000000 0.000000
0.444012 -0.244098 0.000000
-0.490768 0.126008 0.000000
-0.444012 -0.244098 0.000000
0.094943 -0.497711 0.000000
0.490768 0.126008 0.000000
-0.502691 0.063505 0.000000
0.215736 -0.458463 0.000000
0.031815 -0.505686 0.000000
0.471105 -0.186524 0.000000
-0.471105 -0.186524 0.000000
0.502691 -0.063505 0.000000
-0.215736 -0.458463 0.000000
-0.094943 -0.497711 0.000000
-0.409918 -0.297823 0.000000
-0.471105 0.186524 0.000000
0.502691 0.063505 0.000000
-0.156575 -0.481887 0.000000
0.490768 -0.126008 0.000000
-0.369358 -0.346850 0.000000
-0.444012 0.244098 0.000000
-0.409918 0.297823 0.000000
-0.271496 -0.427809 0.000000
-0.031952 0.507855 0.000000
0.445917 0.245145 0.000000
-0.272661 0.429644 0.000000
0.370943 0.348338 0.000000
-0.504847 -0.063777 0.000000
0.324359 -0.392083 0.000000
0.411676 0.299100 0.000000
-0.095351 0.499846 0.000000
0.508859 -0.000000 0.000000
-0.216662 0.460430 0.000000
-0.157246 0.483954 0.000000
0.031952 0.507855 0.000000
0.370943 -0.348338 0.000000
0.411676 -0.299100 0.000000
0.324359 0.392083 0.000000
0.473126 0.187324 0.000000
0.272661 0.429644 0.000000
-0.370943 0.348338 0.000000
-0.324359 0.392083 0.000000
0.216662 0.460430 0.000000
0.157246 -0.483954 0.000000
-0.324359 -0.392083 0.000000
0.272661 -0.429644 0.000000
0.157246 0.483954 0.000000
-0.492873 -0.126548 0.000000
-0.031952 -0.507855 0.000000
0.095351 0.499846 0.000000
0.445917 -0.245145 0.000000
-0.508859 0.000000 0.000000
-0.492873 0.126548 0.000000
-0.445917 -0.245145 0.000000
0.095351 -0.499846 0.000000
-0.504847 0.063777 0.000000
0.216662 -0.460430 0.000000
0.492873 0.126548 0.000000
0.031952 -0.507855 0.000000
0.473126 -0.187324 0.000000
-0.473126 -0.187324 0.000000
0.504847 -0.063777 0.000000
-0.216662 -0.460430 0.000000
-0.095351 -0.499846 0.000000
-0.473126 0.187324 0.000000
-0.411676 -0.299100 0.000000
-0.157246 -0.483954 0.000000
0.504847 0.063777 0.000000
0.492873 -0.126548 0.000000
-0.370943 -0.348338 0.000000
-0.445917 0.245145 0.000000
-0.411676 0.299100 0.000000
-0.272661 -0.429644 0.000000
0.318712 0.385257 0.100000
-0.318712 0.385257 0.100000
[...]
POINT_DATA 5000
SCALARS pressure float 1
LOOKUP_TABLE default
101696.669612
101696.669612
101696.669612
101696.669612
101696.669612
101696.669612
101696.669612
101696.669612
101696.669612
101696.669612
101696.669612
101696.669612
101696.669612
101696.669612
101696.669612
101696.669612
101325.000000
101325.000000
101325.000000
101325.000000
101325.000000
101325.000000
101325.000000
101325.000000
101325.000000
101325.000000
101325.000000
101325.000000
101325.000000
101325.000000
101325.000000
101325.000000
101325.000000
101325.000000
101325.000000
101325.000000
101325.000000
101325.000000
101325.000000
101325.000000
101325.000000
101325.000000
101325.000000
101325.000000
101325.000000
101325.000000
101325.000000
101325.000000
101325.000000
101325.000000
101323.890019
101324.741369
101324.205574
101324.477799
101324.982495
101324.338406
101324.614993
101323.924753
101325.000000
101324.087648
101323.992039
101323.890019
101324.848985
101324.338406
101324.477799
101324.614993
101324.477799
101324.338406
101324.205574
101324.087648
101324.338406
101323.992039
101324.931080
101323.992039
101324.205574
101323.924753
101323.890019
101325.000000
101324.741369
101324.741369
101323.924753
101324.931080
101324.931080
101324.982495
101324.087648
101323.890019
101324.982495
101324.848985
101324.848985
101324.087648
101323.924753
101324.614993
101324.982495
101324.931080
101323.992039
101324.477799
101324.848985
101324.741369
101324.614993
101324.205574
101322.610707
101324.443282
101323.289956
101323.875934
101324.962319
101323.575884
101324.171252
101322.685474
101325.000000
101323.036115
101322.830310
101322.610707
101324.674932
101323.875934
101324.171252
101323.575884
101323.875934
101323.575884
101323.289956
101323.036115
101323.575884
101322.830310
101324.851645
101322.830310
101323.289956
101322.685474
101322.610707
101325.000000
101324.443282
101324.443282
101322.685474
101324.851645
101324.851645
101324.962319
101323.036115
101322.610707
101324.674932
101324.962319
101324.674932
101323.036115
101322.685474
101324.171252
101324.962319
101322.830310
101324.851645
101323.875934
101324.674932
101324.443282
101324.171252
101323.289956
101321.103659
101324.092132
101322.211344
101323.166929
101324.938552
101322.677622
101323.648519
101321.225585
101325.000000
101321.797392
101321.461776
101321.103659
101324.469895
101323.166929
101323.648519
101322.677622
101322.211344
101323.166929
101322.677622
101321.797392
101322.677622
101321.461776
101324.758070
101321.461776
101322.211344
101321.103659
101321.225585
101325.000000
101324.092132
101324.092132
101324.758070
101321.225585
101324.758070
101324.938552
101321.797392
101321.103659
101324.469895
101324.938552
101324.469895
101321.797392
101321.225585
101323.648519
101324.938552
101321.461776
101324.758070
101324.469895
101323.166929
101324.092132
101323.648519
101322.211344
101319.327292
101323.678229
101320.939978
101322.331220
101324.910538
101321.618835
101323.032370
101319.504805
101325.000000
101320.337302
101319.848677
101319.327292
101324.228216
101322.331220
101323.032370
101321.618835
101320.939978
101322.331220
101321.618835
101320.337302
101321.618835
101319.848677
101320.939978
101324.647773
101319.848677
101319.327292
101319.504805
101325.000000
101323.678229
101323.678229
101324.647773
101319.504805
101324.647773
101324.910538
101320.337302
101319.327292
101324.228216
101324.910538
101324.228216
101320.337302
101319.504805
101323.032370
101324.228216
101324.910538
101319.848677
101324.647773
101322.331220
101323.678229
101323.032370
101320.939978
101317.235435
101323.190815
101319.442812
101321.347086
101324.877548
101320.372004
101322.306790
101317.478407
101325.000000
101318.617895
101317.949086
101317.235435
101321.347086
101322.306790
101323.943615
101320.372004
101319.442812
101321.347086
101320.372004
101318.617895
101317.949086
101320.372004
101319.442812
101324.517887
101317.949086
101317.235435
101317.478407
101325.000000
101323.190815
101324.517887
101323.190815
101317.478407
101324.517887
101324.877548
101318.617895
101317.235435
101323.943615
101323.943615
101324.877548
101318.617895
101317.478407
101322.306790
101323.943615
101324.877548
101317.949086
101324.517887
101321.347086
101323.190815
101322.306790
101319.442812
101314.777101
101322.618011
101317.683354
101320.190539
101324.838779
101318.906737
101321.454095
101315.097001
101325.000000
101316.597261
101315.716700
101314.777101
101320.190539
101321.454095
101318.906737
101323.609153
101317.683354
101320.190539
101318.906737
101316.597261
101315.716700
101318.906737
101317.683354
101315.716700
101324.365245
101314.777101
101315.097001
101322.618011
101325.000000
101324.365245
101322.618011
101315.097001
101324.838779
101316.597261
101324.365245
101314.777101
101323.609153
101323.609153
101324.838779
101316.597261
101315.097001
101323.609153
101321.454095
101315.716700
101324.838779
101324.365245
101320.190539
101322.618011
101321.454095
101317.683354
101696.669612
101696.669612
101696.669612
101696.669612
101696.669612
101696.669612
101696.669612
101696.669612
101696.669612
101696.669612
101696.669612
101696.669612
101696.669612
101696.669612
101696.669612
101696.669612
101325.000000
101325.000000
101325.000000
101325.000000
101325.000000
101325.000000
101325.000000
101325.000000
101325.000000
101325.000000
101325.000000
101325.000000
101325.000000
101325.000000
101325.000000
101325.000000
101325.000000
101325.000000
101325.000000
101325.000000
101325.000000
101325.000000
101325.000000
101325.000000
101325.000000
101325.000000
101325.000000
101325.000000
101325.000000
101325.000000
101325.000000
101325.000000
101325.000000
101325.000000
101323.890019
101324.741369
101323.924753
101324.614993
101324.614993
101323.992039
101324.477799
101323.992039
101324.205574
101324.087648
101324.205574
101324.338406
101324.741369
101323.890019
101324.982495
101323.992039
101324.477799
101324.848985
101324.931080
101324.087648
101324.338406
101323.924753
101324.338406
101324.205574
101324.931080
101324.741369
101325.000000
101324.087648
101324.931080
101323.924753
101324.087648
101324.848985
101324.848985
101325.000000
101324.982495
101324.477799
101323.890019
101323.890019
101324.338406
101324.982495
101324.741369
101324.848985
101324.614993
101324.982495
101323.992039
101323.924753
101324.205574
101324.931080
101324.477799
101324.614993
101311.895945
101321.946686
101318.835072
101315.621278
101324.793341
101317.189451
101320.454740
101312.306004
101325.000000
101314.229087
101313.100355
101311.895945
101318.835072
101320.454740
101317.189451
101323.217166
101315.621278
101314.229087
101318.835072
101317.189451
101313.100355
101317.189451
101315.621278
101313.100355
101324.186350
101311.895945
101312.306004
101321.946686
101325.000000
101324.186350
101321.946686
101312.306004
101314.229087
101324.793341
101324.186350
101311.895945
101323.217166
101323.217166
101324.793341
101314.229087
101323.217166
101312.306004
101320.454740
101313.100355
101324.793341
101324.186350
101318.835072
101321.946686
101320.454740
101315.621278
101322.610707
101324.443282
101322.685474
101324.171252
101324.171252
101323.875934
101322.830310
101322.830310
101323.289956
101323.036115
101323.289956
101323.575884
101324.443282
101322.610707
101324.962319
101322.830310
101323.875934
101324.674932
101324.851645
101323.036115
101323.575884
101322.685474
101323.575884
101323.289956
101324.851645
101324.443282
101323.036115
101325.000000
101324.851645
101322.685474
101323.036115
101324.674932
101324.674932
101324.962319
101325.000000
101323.875934
101322.610707
101322.610707
101323.575884
101324.962319
101324.443282
101324.674932
101324.171252
101324.962319
101322.830310
101322.685474
101323.289956
101324.851645
101323.875934
101324.171252
101321.103659
101324.092132
101321.225585
101323.648519
101323.648519
101323.166929
101321.461776
101321.461776
101322.211344
101321.797392
101322.211344
101322.677622
101324.092132
101324.938552
101321.103659
101321.461776
101323.166929
101324.758070
101324.469895
101321.797392
101322.677622
101321.225585
101322.677622
101322.211344
101324.758070
101324.092132
101321.797392
101325.000000
101324.758070
101321.225585
101321.797392
101324.469895
101324.469895
101324.938552
101325.000000
101323.166929
101321.103659
101321.103659
101322.677622
101324.938552
101324.092132
101324.469895
101323.648519
101324.938552
101321.461776
101321.225585
101322.211344
101324.758070
101323.166929
101323.648519
101308.527174
101321.161745
101317.250201
101313.210210
101324.740214
101315.181526
101319.286251
101309.042650
101325.000000
101311.460117
101310.041212
101308.527174
101319.286251
101317.250201
101315.181526
101322.758838
101313.210210
101311.460117
101317.250201
101315.181526
101310.041212
101313.210210
101315.181526
101310.041212
101323.977178
101308.527174
101321.161745
101309.042650
101325.000000
101323.977178
101321.161745
101309.042650
101311.460117
101324.740214
101323.977178
101308.527174
101322.758838
101322.758838
101324.740214
101311.460117
101322.758838
101309.042650
101319.286251
101310.041212
101324.740214
101321.161745
101323.977178
101317.250201
101313.210210
101319.286251
101319.327292
101323.678229
101319.504805
101323.032370
101323.032370
101322.331220
101319.848677
101319.848677
101320.939978
101320.939978
101320.337302
101321.618835
101323.678229
101324.910538
101319.327292
101319.848677
101322.331220
101324.647773
101324.228216
101320.337302
101321.618835
101319.504805
101321.618835
101320.939978
101324.647773
101323.678229
101320.337302
101325.000000
101324.647773
101319.504805
101320.337302
101324.228216
101324.228216
101324.910538
101325.000000
101322.331220
101319.327292
101319.327292
101321.618835
101324.910538
101323.678229
101324.228216
101323.032370
101324.910538
101319.848677
101319.504805
101320.939978
101324.647773
101322.331220
101323.032370
101317.235435
101323.190815
101322.306790
101317.478407
101322.306790
101321.347086
101317.949086
101317.949086
101319.442812
101319.442812
101318.617895
101320.372004
101323.190815
101324.877548
101317.949086
101317.235435
101321.347086
101324.517887
101318.617895
101323.943615
101320.372004
101317.478407
101319.442812
101320.372004
101324.517887
101323.190815
101318.617895
101325.000000
101317.478407
101324.517887
101318.617895
101323.943615
101323.943615
101324.877548
101325.000000
101321.347086
101317.235435
101317.235435
101320.372004
101324.877548
101323.190815
101323.943615
101322.306790
101317.949086
101317.478407
101324.877548
101319.442812
101324.517887
101321.347086
101322.306790
101304.595454
101320.245634
101315.400486
101310.396233
101324.678208
101312.838062
101317.922499
101305.233963
101325.000000
101308.228429
101306.470861
101304.595454
101317.922499
101315.400486
101312.838062
101310.396233
101322.223919
101308.228429
101315.400486
101312.838062
101306.470861
101310.396233
101312.838062
101306.470861
101323.733052
101304.595454
101320.245634
101305.233963
101325.000000
101323.733052
101305.233963
101320.245634
101308.228429
101324.678208
101323.733052
101304.595454
101322.223919
101322.223919
101322.223919
101308.228429
101324.678208
101305.233963
101306.470861
101317.922499
101324.678208
101320.245634
101323.733052
101315.400486
101310.396233
101317.922499
101314.777101
101322.618011
101321.454095
101315.097001
101321.454095
101320.190539
101315.716700
101315.716700
101317.683354
101317.683354
101316.597261
101318.906737
101322.618011
101324.838779
101315.716700
101314.777101
101320.190539
101324.365245
101316.597261
101323.609153
101318.906737
101317.683354
101315.097001
101318.906737
101324.365245
101322.618011
101316.597261
101325.000000
101315.097001
101324.365245
101316.597261
101323.609153
101323.609153
101324.838779
101325.000000
101320.190539
101314.777101
101314.777101
101318.906737
101323.609153
101322.618011
101324.838779
101321.454095
101315.716700
101315.097001
101317.683354
101324.838779
101324.365245
101320.190539
101321.454095
101311.895945
101321.946686
101320.454740
101320.454740
101318.835072
101312.306004
101313.100355
101313.100355
101315.621278
101315.621278
101314.229087
101317.189451
101321.946686
101324.793341
101313.100355
101311.895945
101318.835072
101324.186350
101314.229087
101323.217166
101317.189451
101315.621278
101312.306004
101324.186350
101321.946686
101317.189451
101314.229087
101312.306004
101325.000000
101314.229087
101324.186350
101323.217166
101323.217166
101324.793341
101325.000000
101311.895945
101318.835072
101311.895945
101317.189451
101323.217166
101321.946686
101324.793341
101320.454740
101313.100355
101312.306004
101315.621278
101324.793341
101324.186350
101318.835072
101320.454740
101300.034723
101319.182959
101313.254846
101307.132065
101324.606283
101310.119680
101316.340568
101300.815948
101325.000000
101304.479724
101302.329312
101300.034723
101316.340568
101313.254846
101310.119680
101307.132065
101304.479724
101321.603422
101302.329312
101313.254846
101310.119680
101307.132065
101302.329312
101310.119680
101323.449869
101319.182959
101300.034723
101300.815948
101325.000000
101323.449869
101300.815948
101319.182959
101304.479724
101324.606283
101323.449869
101300.034722
101321.603422
101321.603422
101321.603422
101304.479724
101324.606283
101300.815948
101302.329312
101316.340568
101319.182959
101324.606283
101323.449869
101313.254846
101307.132065
101316.340568
101308.527174
101321.161745
101319.286251
101319.286251
101317.250201
101310.041212
101309.042650
101310.041212
101313.210210
101313.210210
101315.181526
101311.460117
101321.161745
101310.041212
101324.740214
101308.527174
101317.250201
101323.977178
101311.460117
101322.758838
101315.181526
101313.210210
101309.042650
101321.161745
101323.977178
101315.181526
101311.460117
101309.042650
101311.460117
101325.000000
101323.977178
101322.758838
101322.758838
101324.740214
101325.000000
101308.527174
101308.527174
101317.250201
101322.758838
101315.181526
101321.161745
101324.740214
101319.286251
101310.041212
101309.042650
101313.210210
101323.977178
101324.740214
101317.250201
101319.286251
101294.770025
101317.956257
101310.778018
101303.364061
101324.523255
101306.981706
101314.514460
101295.715995
101325.000000
101297.548499
101300.152391
101294.770024
101314.514460
101310.778018
101306.981706
101303.364060
101300.152391
101320.887149
101297.548499
101303.364060
101310.778018
101306.981706
101297.548499
101323.122977
101317.956257
101306.981706
101294.770024
101295.715995
101323.122977
101325.000000
101295.715995
101317.956257
101300.152391
101324.523255
101294.770024
101323.122977
101320.887149
101320.887149
101320.887149
101300.152391
101295.715995
101324.523255
101297.548499
101314.514459
101317.956257
101324.523255
101323.122977
101310.778018
101303.364060
101314.514459
101304.595454
101320.245634
101317.922499
101317.922499
101315.400486
101306.470861
101305.233963
101306.470861
101310.396233
101310.396233
101312.838062
101308.228429
101320.245634
101306.470861
101324.678208
101315.400486
101323.733052
101304.595454
101308.228429
101322.223919
101312.838062
101310.396233
101320.245634
101305.233963
101323.733052
101308.228429
101312.838062
101308.228429
101305.233963
101325.000000
101323.733052
101322.223919
101322.223919
101324.678208
101325.000000
101304.595454
101304.595454
101315.400486
101322.223919
101312.838062
101320.245634
101324.678208
101306.470861
101317.922499
101305.233963
101310.396233
101323.733052
101324.678208
101315.400486
101317.922499
101300.034723
101319.182959
101316.340568
101302.329312
101313.254846
101316.340568
101300.815948
101302.329312
101307.132065
101307.132065
101310.119680
101319.182959
101304.479724
101302.329312
101324.606283
101313.254846
101323.449869
101300.034723
101304.479724
101310.119680
101307.132065
101321.603422
101319.182959
101300.815948
101323.449869
101304.479724
101304.479724
101310.119680
101300.815948
101325.000000
101323.449869
101321.603422
101321.603422
101324.606283
101300.034722
101300.034722
101325.000000
101321.603422
101313.254846
101310.119680
101319.182959
101324.606283
101302.329312
101307.132065
101300.815948
101316.340568
101323.449869
101324.606283
101313.254846
101316.340568
101288.721488
101316.546916
101307.932426
101299.035054
101303.376533
101324.427866
101312.416470
101289.856733
101325.000000
101292.055891
101295.180780
101312.416470
101288.721488
101307.932426
101303.376533
101295.180780
101299.035054
101320.064233
101292.055891
101299.035054
101292.055891
101307.932426
101316.546916
101303.376533
101322.747414
101288.721488
101303.376533
101289.856733
101322.747414
101325.000000
101289.856733
101316.546916
101295.180780
101324.427866
101288.721488
101322.747414
101320.064233
101320.064233
101320.064233
101295.180780
101289.856733
101292.055890
101324.427866
101316.546916
101312.416470
101324.427866
101322.747414
101299.035054
101307.932426
101312.416470
101294.770024
101317.956257
101314.514460
101297.548499
101310.778018
101314.514460
101295.715995
101297.548499
101303.364061
101303.364061
101306.981706
101317.956257
101297.548499
101300.152391
101324.523255
101323.122977
101310.778018
101300.152391
101294.770024
101303.364060
101306.981706
101317.956257
101320.887149
101300.152391
101323.122977
101300.152391
101295.715995
101306.981706
101295.715995
101320.887149
101320.887149
101325.000000
101323.122977
101324.523255
101294.770024
101294.770024
101320.887149
101325.000000
101310.778018
101317.956257
101306.981706
101324.523255
101297.548499
101303.364060
101295.715995
101314.514459
101323.122977
101324.523255
101310.778018
101314.514459
101281.793347
101314.932623
101304.673016
101294.076504
101299.247079
101324.318605
101310.013382
101283.145391
101325.000000
101310.013382
101304.673016
101285.764524
101289.486177
101281.793347
101289.486177
101299.247079
101294.076504
101285.764524
101294.076504
101319.121645
101314.932623
101285.764524
101322.317236
101304.673016
101299.247079
101281.793347
101299.247079
101322.317236
101283.145391
101325.000000
101283.145391
101314.932623
101289.486177
101324.318605
101319.121644
101281.793347
101319.121644
101322.317236
101289.486176
101319.121644
101283.145391
101285.764524
101324.318605
101314.932623
101310.013382
101324.318605
101294.076504
101322.317236
101304.673015
101310.013382
101288.721488
101316.546916
101312.416470
101292.055891
101307.932426
101312.416470
101289.856733
101299.035054
101292.055891
101303.376533
101299.035054
101316.546916
101292.055891
101322.747414
101324.427866
101307.932426
101295.180780
101295.180780
101288.721488
101299.035054
101303.376533
101295.180780
101316.546916
101295.180780
101322.747414
101320.064233
101289.856733
101289.856733
101303.376533
101320.064233
101320.064233
101322.747414
101325.000000
101324.427866
101320.064233
101288.721488
101288.721488
101325.000000
101316.546916
101307.932426
101303.376533
101292.055890
101324.427866
101299.035054
101289.856733
101312.416470
101322.747414
101324.427866
101307.932426
101312.416470
101273.947681
101313.104541
101300.981947
101288.461271
101294.570743
101324.194874
101307.292041
101275.545235
101325.000000
101307.292041
101300.981947
101283.037410
101294.570743
101288.461271
101278.639962
101273.947681
101283.037410
101278.639962
101288.461271
101313.104541
101278.639962
101318.054225
101321.830087
101273.947681
101300.981946
101294.570743
101294.570743
101321.830087
101275.545235
101325.000000
101275.545235
101313.104541
101283.037410
101318.054225
101324.194874
101273.947681
101283.037410
101318.054225
101321.830087
101318.054225
101278.639962
101275.545235
101313.104541
101324.194874
101307.292041
101288.461271
101324.194874
101321.830087
101300.981946
101307.292041
101281.793347
101310.013382
101314.932623
101285.764524
101304.673016
101310.013382
101283.145391
101294.076504
101299.247079
101285.764524
101314.932623
101294.076504
101285.764524
101322.317236
101304.673016
101324.318605
101289.486177
101289.486177
101281.793347
101289.486177
101294.076504
101299.247079
101314.932623
101289.486177