# vtk DataFile Version 3.0
Time Step 164, Physical Time = 0.001640s, Residual = 1.94e-03
ASCII
DATASET UNSTRUCTURED_GRID
POINTS 5000 float
0.318712 0.385257 0.000000
-0.318712 0.385257 0.000000
-0.318712 -0.385257 0.000000
0.318712 -0.385257 0.000000
0.093691 0.491144 0.000000
-0.093691 0.491144 0.000000
-0.093691 -0.491144 0.000000
0.093691 -0.491144 0.000000
0.404508 0.293893 0.000000
-0.404508 0.293893 0.000000
-0.404508 -0.293893 0.000000
0.404508 -0.293893 0.000000
0.438153 0.240877 0.000000
-0.438153 0.240877 0.000000
-0.438153 -0.240877 0.000000
0.438153 -0.240877 0.000000
0.500000 0.000000 0.000000
-0.500000 -0.000000 0.000000
0.364484 0.342274 0.000000
-0.364484 0.342274 0.000000
-0.364484 -0.342274 0.000000
0.364484 -0.342274 0.000000
0.496057 0.062667 0.000000
-0.496057 0.062667 0.000000
-0.496057 -0.062667 0.000000
0.496057 -0.062667 0.000000
0.212890 0.452414 0.000000
-0.212890 0.452414 0.000000
-0.212890 -0.452414 0.000000
0.212890 -0.452414 0.000000
0.154508 0.475528 0.000000
-0.154508 0.475528 0.000000
-0.154508 -0.475528 0.000000
0.154508 -0.475528 0.000000
0.267913 0.422164 0.000000
-0.267913 0.422164 0.000000
-0.267913 -0.422164 0.000000
0.267913 -0.422164 0.000000
0.031395 0.499013 0.000000
-0.031395 0.499013 0.000000
-0.031395 -0.499013 0.000000
0.031395 -0.499013 0.000000
0.464888 0.184062 0.000000
-0.464888 0.184062 0.000000
-0.464888 -0.184062 0.000000
0.464888 -0.184062 0.000000
0.484292 0.124345 0.000000
-0.484292 0.124345 0.000000
-0.484292 -0.124345 0.000000
0.484292 -0.124345 0.000000
-0.031454 0.499951 0.000000
0.438977 0.241329 0.000000
-0.268417 0.422957 0.000000
0.365169 0.342917 0.000000
-0.496990 -0.062784 0.000000
0.319311 -0.385981 0.000000
0.405269 0.294445 0.000000
-0.093867 0.492067 0.000000
0.500940 -0.000000 0.000000
-0.213290 0.453264 0.000000
-0.154799 0.476422 0.000000
0.031454 0.499951 0.000000
0.465762 0.184408 0.000000
0.319311 0.385981 0.000000
0.365169 -0.342917 0.000000
0.405269 -0.294445 0.000000
-0.365169 0.342917 0.000000
-0.319311 0.385981 0.000000
0.268417 0.422957 0.000000
0.213290 0.453264 0.000000
-0.319311 -0.385981 0.000000
0.154799 -0.476422 0.000000
-0.485202 -0.124579 0.000000
0.154799 0.476422 0.000000
0.268417 -0.422957 0.000000
0.093867 0.492067 0.000000
-0.031454 -0.499951 0.000000
-0.500940 0.000000 0.000000
0.438977 -0.241329 0.000000
-0.438977 -0.241329 0.000000
0.093867 -0.492067 0.000000
-0.485202 0.124579 0.000000
0.485202 0.124579 0.000000
-0.496990 0.062784 0.000000
0.213290 -0.453264 0.000000
0.031454 -0.499951 0.000000
0.496990 -0.062784 0.000000
0.465762 -0.184408 0.000000
-0.465762 -0.184408 0.000000
-0.213290 -0.453264 0.000000
-0.093867 -0.492067 0.000000
-0.405269 -0.294445 0.000000
0.496990 0.062784 0.000000
0.485202 -0.124579 0.000000
-0.154799 -0.476422 0.000000
-0.365169 -0.342917 0.000000
-0.465762 0.184408 0.000000
-0.438977 0.241329 0.000000
-0.405269 0.294445 0.000000
-0.268417 -0.422957 0.000000
-0.031523 0.501039 0.000000
0.439932 0.241854 0.000000
-0.269001 0.423877 0.000000
0.365964 0.343663 0.000000
-0.498071 -0.062921 0.000000
0.320005 -0.386820 0.000000
0.406150 0.295085 0.000000
-0.094071 0.493137 0.000000
0.502029 -0.000000 0.000000
-0.213754 0.454250 0.000000
-0.155136 0.477458 0.000000
0.031523 0.501039 0.000000
0.466775 0.184809 0.000000
0.365964 -0.343663 0.000000
0.406150 -0.295085 0.000000
0.320005 0.386820 0.000000
-0.365964 0.343663 0.000000
-0.320005 0.386820 0.000000
0.269001 0.423877 0.000000
0.213754 0.454250 0.000000
-0.320005 -0.386820 0.000000
0.155136 -0.477458 0.000000
-0.486257 -0.124850 0.000000
0.155136 0.477458 0.000000
0.269001 -0.423877 0.000000
0.094071 0.493137 0.000000
-0.031523 -0.501039 0.000000
-0.502029 0.000000 0.000000
0.439932 -0.241854 0.000000
-0.439932 -0.241854 0.000000
0.094071 -0.493137 0.000000
-0.486257 0.124850 0.000000
0.486257 0.124850 0.000000
-0.498071 0.062921 0.000000
0.213754 -0.454250 0.000000
0.031523 -0.501039 0.000000
0.466775 -0.184809 0.000000
0.498071 -0.062921 0.000000
-0.466775 -0.184809 0.000000
-0.213754 -0.454250 0.000000
-0.094071 -0.493137 0.000000
-0.406150 -0.295085 0.000000
0.498071 0.062921 0.000000
-0.155136 -0.477458 0.000000
0.486257 -0.124850 0.000000
-0.365964 -0.343663 0.000000
-0.466775 0.184809 0.000000
-0.439932 0.241854 0.000000
-0.406150 0.295085 0.000000
-0.269001 -0.423877 0.000000
-0.031604 0.502329 0.000000
0.441064 0.242477 0.000000
-0.269693 0.424969 0.000000
0.366906 0.344547 0.000000
-0.499353 -0.063083 0.000000
0.320829 -0.387816 0.000000
0.407196 0.295845 0.000000
-0.094313 0.494407 0.000000
0.503322 -0.000000 0.000000
-0.214304 0.455419 0.000000
-0.155535 0.478688 0.000000
0.031604 0.502329 0.000000
0.467977 0.185285 0.000000
0.366906 -0.344547 0.000000
0.407196 -0.295845 0.000000
0.320829 0.387816 0.000000
0.269693 0.424969 0.000000
-0.366906 0.344547 0.000000
-0.320829 0.387816 0.000000
0.214304 0.455419 0.000000
-0.320829 -0.387816 0.000000
0.155535 -0.478688 0.000000
-0.487509 -0.125171 0.000000
0.155535 0.478688 0.000000
0.269693 -0.424969 0.000000
-0.031604 -0.502329 0.000000
0.094313 0.494407 0.000000
-0.503322 0.000000 0.000000
0.441064 -0.242477 0.000000
-0.441064 -0.242477 0.000000
-0.487509 0.125171 0.000000
0.094313 -0.494407 0.000000
0.487509 0.125171 0.000000
-0.499353 0.063083 0.000000
0.214304 -0.455419 0.000000
0.031604 -0.502329 0.000000
0.467977 -0.185285 0.000000
0.499353 -0.063083 0.000000
-0.467977 -0.185285 0.000000
-0.214304 -0.455419 0.000000
-0.094313 -0.494407 0.000000
-0.407196 -0.295845 0.000000
0.499353 0.063083 0.000000
-0.155535 -0.478688 0.000000
0.487509 -0.125171 0.000000
-0.467977 0.185285 0.000000
-0.366906 -0.344547 0.000000
-0.441064 0.242477 0.000000
-0.407196 0.295845 0.000000
-0.269693 -0.424969 0.000000
-0.031700 0.503862 0.000000
0.442411 0.243217 0.000000
-0.270517 0.426266 0.000000
0.368026 0.345599 0.000000
-0.500877 -0.063276 0.000000
0.321809 -0.389000 0.000000
0.408439 0.296748 0.000000
-0.094601 0.495916 0.000000
0.504858 -0.000000 0.000000
-0.214958 0.456810 0.000000
-0.156010 0.480149 0.000000
0.031700 0.503862 0.000000
0.469405 0.185851 0.000000
0.368026 -0.345599 0.000000
0.408439 -0.296748 0.000000
0.321809 0.389000 0.000000
0.270517 0.426266 0.000000
-0.368026 0.345599 0.000000
-0.321809 0.389000 0.000000
0.214958 0.456810 0.000000
-0.321809 -0.389000 0.000000
0.156010 -0.480149 0.000000
0.270517 -0.426266 0.000000
-0.488997 -0.125553 0.000000
0.156010 0.480149 0.000000
-0.031700 -0.503862 0.000000
0.094601 0.495916 0.000000
-0.504858 0.000000 0.000000
0.442411 -0.243217 0.000000
-0.442411 -0.243217 0.000000
-0.488997 0.125553 0.000000
0.094601 -0.495916 0.000000
0.488997 0.125553 0.000000
-0.500877 0.063276 0.000000
0.214958 -0.456810 0.000000
0.031700 -0.503862 0.000000
0.469405 -0.185851 0.000000
0.500877 -0.063276 0.000000
-0.469405 -0.185851 0.000000
-0.214958 -0.456810 0.000000
-0.094601 -0.495916 0.000000
-0.408439 -0.296748 0.000000
-0.469405 0.185851 0.000000
0.500877 0.063276 0.000000
-0.156010 -0.480149 0.000000
0.488997 -0.125553 0.000000
-0.368026 -0.345599 0.000000
-0.442411 0.243217 0.000000
-0.408439 0.296748 0.000000
-0.270517 -0.426266 0.000000
-0.031815 0.505686 0.000000
0.444012 0.244098 0.000000
-0.271496 0.427809 0.000000
0.369358 0.346850 0.000000
-0.502691 -0.063505 0.000000
0.322974 -0.390408 0.000000
0.409918 0.297823 0.000000
-0.094943 0.497711 0.000000
0.506686 -0.000000 0.000000
-0.215736 0.458463 0.000000
-0.156575 0.481887 0.000000
0.031815 0.505686 0.000000
0.369358 -0.346850 0.000000
0.409918 -0.297823 0.000000
0.471105 0.186524 0.000000
0.322974 0.390408 0.000000
0.271496 0.427809 0.000000
-0.369358 0.346850 0.000000
-0.322974 0.390408 0.000000
0.215736 0.458463 0.000000
0.156575 -0.481887 0.000000
-0.322974 -0.390408 0.000000
0.271496 -0.427809 0.000000
-0.490768 -0.126008 0.000000
0.156575 0.481887 0.000000
-0.031815 -0.505686 0.000000
0.094943 0.497711 0.000000
-0.506686 0.000000 0.000000
0.444012 -0.244098 0.000000
-0.490768 0.126008 0.000000
-0.444012 -0.244098 0.000000
0.094943 -0.497711 0.000000
0.490768 0.126008 0.000000
-0.502691 0.063505 0.000000
0.215736 -0.458463 0.000000
0.031815 -0.505686 0.000000
0.471105 -0.186524 0.000000
-0.471105 -0.186524 0.000000
0.502691 -0.063505 0.000000
-0.215736 -0.458463 0.000000
-0.094943 -0.497711 0.000000
-0.409918 -0.297823 0.000000
-0.471105 0.186524 0.000000
0.502691 0.063505 0.000000
-0.156575 -0.481887 0.000000
0.490768 -0.126008 0.000000
-0.369358 -0.346850 0.000000
-0.444012 0.244098 0.000000
-0.409918 0.297823 0.000000
-0.271496 -0.427809 0.000000
-0.031952 0.507855 0.000000
0.445917 0.245145 0.000000
-0.272661 0.429644 0.000000
0.370943 0.348338 0.000000
-0.504847 -0.063777 0.000000
0.324359 -0.392083 0.000000
0.411676 0.299100 0.000000
-0.095351 0.499846 0.000000
0.508859 -0.000000 0.000000
-0.216662 0.460430 0.000000
-0.157246 0.483954 0.000000
0.031952 0.507855 0.000000
0.370943 -0.348338 0.000000
0.411676 -0.299100 0.000000
0.324359 0.392083 0.000000
0.473126 0.187324 0.000000
0.272661 0.429644 0.000000
-0.370943 0.348338 0.000000
-0.324359 0.392083 0.000000
0.216662 0.460430 0.000000
0.157246 -0.483954 0.000000
-0.324359 -0.392083 0.000000
0.272661 -0.429644 0.000000
0.157246 0.483954 0.000000
-0.492873 -0.126548 0.000000
-0.031952 -0.507855 0.000000
0.095351 0.499846 0.000000
0.445917 -0.245145 0.000000
-0.508859 0.000000 0.000000
-0.492873 0.126548 0.000000
-0.445917 -0.245145 0.000000
0.095351 -0.499846 0.000000
-0.504847 0.063777 0.000000
0.216662 -0.460430 0.000000
0.492873 0.126548 0.000000
0.031952 -0.507855 0.000000
0.473126 -0.187324 0.000000
-0.473126 -0.187324 0.000000
0.504847 -0.063777 0.000000
-0.216662 -0.460430 0.000000
-0.095351 -0.499846 0.000000
-0.473126 0.187324 0.000000
-0.411676 -0.299100 0.000000
-0.157246 -0.483954 0.000000
0.504847 0.063777 0.000000
0.492873 -0.126548 0.000000
-0.370943 -0.348338 0.000000
-0.445917 0.245145 0.000000
-0.411676 0.299100 0.000000
-0.272661 -0.429644 0.000000
0.318712 0.385257 0.100000
-0.318712 0.385257 0.100000
[...]
POINT_DATA 5000
SCALARS pressure float 1
LOOKUP_TABLE default
101806.185872
101806.185872
101806.185872
101806.185872
101806.185872
101806.185872
101806.185872
101806.185872
101806.185872
101806.185872
101806.185872
101806.185872
101806.185872
101806.185872
101806.185872
101806.185872
101325.000000
101325.000000
101325.000000
101325.000000
101325.000000
101325.000000
101325.000000
101325.000000
101325.000000
101325.000000
101325.000000
101325.000000
101325.000000
101325.000000
101325.000000
101325.000000
101325.000000
101325.000000
101325.000000
101325.000000
101325.000000
101325.000000
101325.000000
101325.000000
101325.000000
101325.000000
101325.000000
101325.000000
101325.000000
101325.000000
101325.000000
101325.000000
101325.000000
101325.000000
101323.562952
101324.665160
101323.971488
101324.323927
101324.977337
101324.143461
101324.501547
101323.607921
101325.000000
101323.818815
101323.695033
101323.562952
101324.804487
101324.143461
101324.323927
101324.501547
101324.323927
101324.143461
101323.971488
101323.818815
101324.143461
101323.695033
101324.910772
101323.695033
101323.971488
101323.607921
101323.562952
101325.000000
101324.665160
101324.665160
101323.607921
101324.910772
101324.910772
101324.977337
101323.818815
101323.562952
101324.977337
101324.804487
101324.804487
101323.818815
101323.607921
101324.501547
101324.977337
101324.910772
101323.695033
101324.323927
101324.804487
101324.665160
101324.501547
101323.971488
101321.906678
101324.279240
101322.786074
101323.544717
101324.951216
101323.156254
101323.927053
101322.003476
101325.000000
101322.457436
101322.190989
101321.906678
101324.579147
101323.544717
101323.927053
101323.156254
101323.544717
101323.156254
101322.786074
101322.457436
101323.156254
101322.190989
101324.807931
101322.190989
101322.786074
101322.003476
101321.906678
101325.000000
101324.279240
101324.279240
101322.003475
101324.807931
101324.807931
101324.951216
101322.457436
101321.906678
101324.579147
101324.951216
101324.579147
101322.457436
101322.003475
101323.927053
101324.951216
101322.190989
101324.807931
101323.544717
101324.579147
101324.279240
101323.927053
101322.786074
101319.955562
101323.824619
101321.389638
101322.626796
101324.920446
101321.993310
101323.250291
101320.113415
101325.000000
101320.853711
101320.419202
101319.955562
101324.313694
101322.626796
101323.250291
101321.993310
101321.389638
101322.626796
101321.993310
101320.853711
101321.993310
101320.419202
101324.686783
101320.419202
101321.389638
101319.955562
101320.113415
101325.000000
101323.824619
101323.824619
101324.686783
101320.113415
101324.686783
101324.920446
101320.853711
101319.955562
101324.313694
101324.920446
101324.313694
101320.853711
101320.113415
101323.250291
101324.920446
101320.419202
101324.686783
101324.313694
101322.626796
101323.824619
101323.250291
101321.389638
101317.655770
101323.288756
101319.743650
101321.544836
101324.884177
101320.622540
101322.452587
101317.885589
101325.000000
101318.963390
101318.330787
101317.655770
101324.000802
101321.544836
101322.452587
101320.622540
101319.743650
101321.544836
101320.622540
101318.963390
101320.622540
101318.330787
101319.743650
101324.543986
101318.330787
101317.655770
101317.885589
101325.000000
101323.288756
101323.288756
101324.543986
101317.885589
101324.543986
101324.884177
101318.963390
101317.655770
101324.000802
101324.884177
101324.000802
101318.963390
101317.885589
101322.452587
101324.000802
101324.884177
101318.330787
101324.543986
101321.544836
101323.288756
101322.452587
101319.743650
101314.947526
101322.657721
101317.805329
101320.270717
101324.841466
101319.008317
101321.513209
101315.262093
101325.000000
101316.737342
101315.871461
101314.947526
101320.270717
101321.513209
101323.632340
101319.008317
101317.805329
101320.270717
101319.008317
101316.737342
101315.871461
101319.008317
101317.805329
101324.375827
101315.871461
101314.947526
101315.262093
101325.000000
101322.657721
101324.375827
101322.657721
101315.262093
101324.375827
101324.841466
101316.737342
101314.947526
101323.632340
101323.632340
101324.841466
101316.737342
101315.262093
101321.513209
101323.632340
101324.841466
101315.871461
101324.375827
101320.270717
101322.657721
101321.513208
101317.805329
101311.764819
101321.916133
101315.527429
101318.773382
101324.791273
101317.111294
101320.409258
101312.178980
101325.000000
101314.121308
101312.981281
101311.764819
101318.773382
101320.409258
101317.111294
101323.199326
101315.527429
101318.773382
101317.111294
101314.121308
101312.981281
101317.111294
101315.527429
101312.981281
101324.178208
101311.764819
101312.178980
101321.916133
101325.000000
101324.178208
101321.916133
101312.178980
101324.791273
101314.121307
101324.178208
101311.764819
101323.199326
101323.199326
101324.791273
101314.121307
101312.178980
101323.199326
101320.409258
101312.981280
101324.791273
101324.178208
101318.773382
101321.916133
101320.409258
101315.527429
101806.185872
101806.185872
101806.185872
101806.185872
101806.185872
101806.185872
101806.185872
101806.185872
101806.185872
101806.185872
101806.185872
101806.185872
101806.185872
101806.185872
101806.185872
101806.185872
101325.000000
101325.000000
101325.000000
101325.000000
101325.000000
101325.000000
101325.000000
101325.000000
101325.000000
101325.000000
101325.000000
101325.000000
101325.000000
101325.000000
101325.000000
101325.000000
101325.000000
101325.000000
101325.000000
101325.000000
101325.000000
101325.000000
101325.000000
101325.000000
101325.000000
101325.000000
101325.000000
101325.000000
101325.000000
101325.000000
101325.000000
101325.000000
101325.000000
101325.000000
101323.562952
101324.665160
101323.607921
101324.501547
101324.501547
101323.695033
101324.323927
101323.695033
101323.971488
101323.818815
101323.971488
101324.143461
101324.665160
101323.562952
101324.977337
101323.695033
101324.323927
101324.804487
101324.910772
101323.818815
101324.143461
101323.607921
101324.143461
101323.971488
101324.910772
101324.665160
101325.000000
101323.818815
101324.910772
101323.607921
101323.818815
101324.804487
101324.804487
101325.000000
101324.977337
101324.323927
101323.562952
101323.562952
101324.143461
101324.977337
101324.665160
101324.804487
101324.501547
101324.977337
101323.695033
101323.607921
101323.971488
101324.910772
101324.323927
101324.501547
101308.034701
101321.046996
101317.018512
101312.857741
101324.732447
101314.887992
101319.115433
101308.565588
101325.000000
101311.055327
101309.594003
101308.034701
101317.018512
101319.115433
101314.887992
101322.691836
101312.857741
101311.055327
101317.018512
101314.887992
101309.594003
101314.887992
101312.857741
101309.594003
101323.946600
101308.034701
101308.565587
101321.046996
101325.000000
101323.946600
101321.046996
101308.565587
101311.055327
101324.732447
101323.946600
101308.034701
101322.691836
101322.691836
101324.732447
101311.055327
101322.691836
101308.565587
101319.115433
101309.594003
101324.732447
101323.946600
101317.018512
101321.046996
101319.115433
101312.857741
101321.906678
101324.279240
101322.003476
101323.927053
101323.927053
101323.544717
101322.190989
101322.190989
101322.786074
101322.457436
101322.786074
101323.156254
101324.279240
101321.906678
101324.951216
101322.190989
101323.544717
101324.579147
101324.807931
101322.457436
101323.156254
101322.003476
101323.156254
101322.786074
101324.807931
101324.279240
101322.457436
101325.000000
101324.807931
101322.003475
101322.457436
101324.579147
101324.579147
101324.951216
101325.000000
101323.544717
101321.906678
101321.906678
101323.156254
101324.951216
101324.279240
101324.579147
101323.927053
101324.951216
101322.190989
101322.003475
101322.786074
101324.807931
101323.544717
101323.927053
101319.955562
101323.824619
101320.113415
101323.250291
101323.250291
101322.626796
101320.419202
101320.419202
101321.389638
101320.853711
101321.389638
101321.993310
101323.824619
101324.920446
101319.955562
101320.419202
101322.626796
101324.686783
101324.313694
101320.853711
101321.993310
101320.113415
101321.993310
101321.389638
101324.686783
101323.824619
101320.853711
101325.000000
101324.686783
101320.113415
101320.853711
101324.313694
101324.313694
101324.920446
101325.000000
101322.626796
101319.955562
101319.955562
101321.993310
101324.920446
101323.824619
101324.313694
101323.250291
101324.920446
101320.419202
101320.113415
101321.389638
101324.686783
101322.626796
101323.250291
101303.673287
101320.030764
101314.966643
101309.736228
101324.663665
101312.288412
101317.602637
101304.340653
101325.000000
101307.470451
101305.633451
101303.673287
101317.602637
101314.966643
101312.288412
101322.098456
101309.736227
101307.470451
101314.966643
101312.288412
101305.633451
101309.736227
101312.288412
101305.633451
101323.675793
101303.673287
101320.030764
101304.340653
101325.000000
101323.675793
101320.030764
101304.340653
101307.470451
101324.663665
101323.675793
101303.673287
101322.098456
101322.098456
101324.663665
101307.470451
101322.098456
101304.340653
101317.602637
101305.633451
101324.663665
101320.030764
101323.675793
101314.966643
101309.736227
101317.602637
101317.655770
101323.288756
101317.885589
101322.452587
101322.452587
101321.544836
101318.330787
101318.330787
101319.743650
101319.743650
101318.963390
101320.622540
101323.288756
101324.884177
101317.655770
101318.330787
101321.544836
101324.543986
101324.000802
101318.963390
101320.622540
101317.885589
101320.622540
101319.743650
101324.543986
101323.288756
101318.963390
101325.000000
101324.543986
101317.885589
101318.963390
101324.000802
101324.000802
101324.884177
101325.000000
101321.544836
101317.655770
101317.655770
101320.622540
101324.884177
101323.288756
101324.000802
101322.452587
101324.884177
101318.330787
101317.885589
101319.743650
101324.543986
101321.544836
101322.452587
101314.947526
101322.657721
101321.513209
101315.262093
101321.513209
101320.270717
101315.871461
101315.871461
101317.805329
101317.805329
101316.737342
101319.008317
101322.657721
101324.841466
101315.871461
101314.947526
101320.270717
101324.375827
101316.737342
101323.632340
101319.008317
101315.262093
101317.805329
101319.008317
101324.375827
101322.657721
101316.737342
101325.000000
101315.262093
101324.375827
101316.737342
101323.632340
101323.632340
101324.841466
101325.000000
101320.270717
101314.947526
101314.947526
101319.008317
101324.841466
101322.657721
101323.632340
101321.513209
101315.871461
101315.262093
101324.841466
101317.805329
101324.375827
101320.270717
101321.513208
101298.583046
101318.844711
101312.571890
101306.093084
101324.583389
101309.254422
101315.837040
101299.409698
101325.000000
101303.286514
101301.011061
101298.583046
101315.837040
101312.571890
101309.254422
101306.093084
101321.405918
101303.286514
101312.571890
101309.254422
101301.011061
101306.093084
101309.254422
101301.011061
101323.359733
101298.583046
101318.844711
101299.409698
101325.000000
101323.359733
101299.409698
101318.844711
101303.286514
101324.583389
101323.359733
101298.583046
101321.405918
101321.405918
101321.405918
101303.286514
101324.583389
101299.409698
101301.011060
101315.837040
101324.583389
101318.844711
101323.359733
101312.571890
101306.093084
101315.837040
101311.764819
101321.916133
101320.409258
101312.178980
101320.409258
101318.773382
101312.981281
101312.981281
101315.527429
101315.527429
101314.121308
101317.111294
101321.916133
101324.791273
101312.981281
101311.764819
101318.773382
101324.178208
101314.121308
101323.199326
101317.111294
101315.527429
101312.178980
101317.111294
101324.178208
101321.916133
101314.121308
101325.000000
101312.178980
101324.178208
101314.121307
101323.199326
101323.199326
101324.791273
101325.000000
101318.773382
101311.764819
101311.764819
101317.111294
101323.199326
101321.916133
101324.791273
101320.409258
101312.981281
101312.178980
101315.527429
101324.791273
101324.178208
101318.773382
101320.409258
101308.034701
101321.046996
101319.115433
101319.115433
101317.018512
101308.565587
101309.594003
101309.594003
101312.857741
101312.857741
101311.055327
101314.887992
101321.046996
101324.732447
101309.594003
101308.034701
101317.018512
101323.946600
101311.055327
101322.691836
101314.887992
101312.857741
101308.565587
101323.946600
101321.046996
101314.887992
101311.055327
101308.565587
101325.000000
101311.055327
101323.946600
101322.691836
101322.691836
101324.732447
101325.000000
101308.034701
101317.018512
101308.034701
101314.887992
101322.691836
101321.046996
101324.732447
101319.115433
101309.594003
101308.565587
101312.857741
101324.732447
101323.946600
101317.018512
101319.115433
101292.678448
101317.468908
101309.794016
101301.867095
101324.490270
101305.735041
101313.788977
101293.689869
101325.000000
101298.433214
101295.649161
101292.678448
101313.788977
101309.794016
101305.735041
101301.867095
101298.433214
101320.602585
101295.649161
101309.794015
101305.735041
101301.867095
101295.649161
101305.735041
101322.993107
101317.468908
101292.678448
101293.689869
101325.000000
101322.993107
101293.689869
101317.468908
101298.433214
101324.490270
101322.993107
101292.678448
101320.602585
101320.602585
101320.602585
101298.433214
101324.490270
101293.689869
101295.649161
101313.788977
101317.468908
101324.490270
101322.993107
101309.794015
101301.867095
101313.788977
101303.673287
101320.030764
101317.602637
101317.602637
101314.966643
101305.633451
101304.340653
101305.633451
101309.736228
101309.736227
101312.288412
101307.470451
101320.030764
101305.633451
101324.663665
101303.673287
101314.966643
101323.675793
101307.470451
101322.098456
101312.288412
101309.736227
101304.340653
101320.030764
101323.675793
101312.288412
101307.470451
101304.340653
101307.470451
101325.000000
101323.675793
101322.098456
101322.098456
101324.663665
101325.000000
101303.673287
101303.673287
101314.966643
101322.098456
101312.288412
101320.030764
101324.663665
101317.602637
101305.633451
101304.340653
101309.736227
101323.675793
101324.663665
101314.966643
101317.602637
101285.862452
101315.880746
101306.587365
101296.988809
101324.382777
101301.672431
101311.424788
101287.087163
101325.000000
101289.459632
101292.830788
101285.862452
101311.424788
101306.587365
101301.672431
101296.988809
101292.830788
101319.675255
101289.459632
101296.988809
101306.587365
101301.672431
101289.459632
101322.569892
101315.880746
101301.672431
101285.862452
101287.087163
101322.569892
101325.000000
101287.087163
101315.880745
101292.830788
101324.382777
101285.862452
101322.569892
101319.675255
101319.675255
101319.675255
101292.830788
101287.087163
101324.382777
101289.459632
101311.424787
101315.880745
101324.382777
101322.569892
101306.587365
101296.988809
101311.424787
101298.583046
101318.844711
101315.837040
101315.837040
101312.571890
101301.011061
101299.409698
101301.011061
101306.093084
101306.093084
101309.254422
101303.286514
101318.844711
101301.011061
101324.583389
101312.571890
101323.359733
101298.583046
101303.286514
101321.405918
101309.254422
101306.093084
101318.844711
101299.409698
101323.359733
101303.286514
101309.254422
101303.286514
101299.409698
101325.000000
101323.359733
101321.405918
101321.405918
101324.583389
101325.000000
101298.583046
101298.583046
101312.571890
101321.405918
101309.254422
101318.844711
101324.583389
101301.011060
101315.837040
101299.409698
101306.093084
101323.359733
101324.583389
101312.571890
101315.837040
101292.678448
101317.468908
101313.788977
101295.649161
101309.794016
101313.788977
101293.689869
101295.649161
101301.867095
101301.867095
101305.735041
101317.468908
101298.433214
101295.649161
101324.490270
101309.794016
101322.993107
101292.678448
101298.433214
101305.735041
101301.867095
101320.602585
101317.468908
101293.689869
101322.993107
101298.433214
101298.433214
101305.735041
101293.689869
101325.000000
101322.993107
101320.602585
101320.602585
101324.490270
101292.678448
101292.678448
101325.000000
101320.602585
101309.794015
101305.735041
101317.468908
101324.490270
101295.649161
101301.867095
101293.689869
101313.788977
101322.993107
101324.490270
101309.794015
101313.788977
101278.031653
101314.056128
101302.903290
101291.384216
101297.004956
101324.259281
101308.708604
101279.501409
101325.000000
101282.348571
101286.394242
101308.708604
101278.031653
101302.903290
101297.004956
101286.394242
101291.384216
101318.609858
101282.348571
101291.384216
101282.348571
101302.903290
101314.056128
101297.004956
101322.083667
101278.031653
101297.004956
101279.501409
101322.083666
101325.000000
101279.501409
101314.056128
101286.394242
101324.259281
101278.031653
101322.083667
101318.609858
101318.609858
101318.609858
101286.394242
101279.501409
101282.348571
101324.259281
101314.056128
101308.708604
101324.259281
101322.083667
101291.384216
101302.903290
101308.708604
101285.862452
101315.880746
101311.424788
101289.459632
101306.587365
101311.424788
101287.087163
101289.459632
101296.988809
101296.988809
101301.672431
101315.880746
101289.459632
101292.830788
101324.382777
101322.569892
101306.587365
101292.830788
101285.862452
101296.988809
101301.672431
101315.880746
101319.675255
101292.830788
101322.569892
101292.830788
101287.087163
101301.672431
101287.087163
101319.675255
101319.675255
101325.000000
101322.569892
101324.382777
101285.862452
101285.862452
101319.675255
101325.000000
101306.587365
101315.880745
101301.672431
101324.382777
101289.459632
101296.988809
101287.087163
101311.424787
101322.569892
101324.382777
101306.587365
101311.424787
101269.062064
101311.966167
101298.683461
101284.964579
101291.658717
101324.117825
101305.597421
101270.812501
101325.000000
101305.597421
101298.683461
101274.203389
101279.021665
101269.062064
101279.021665
101291.658717
101284.964579
101274.203388
101284.964579
101317.389527
101311.966167
101274.203388
101321.526732
101298.683461
101291.658717
101269.062064
101291.658717
101321.526732
101270.812501
101325.000000
101270.812501
101311.966167
101279.021664
101324.117825
101317.389527
101269.062064
101317.389527
101321.526732
101279.021664
101317.389527
101270.812501
101274.203388
101324.117825
101311.966167
101305.597421
101324.117825
101284.964579
101321.526732
101298.683461
101305.597421
101278.031653
101314.056128
101308.708604
101282.348571
101302.903290
101308.708604
101279.501409
101291.384216
101282.348571
101297.004956
101291.384216
101314.056128
101282.348571
101322.083667
101324.259281
101302.903290
101286.394242
101286.394242
101278.031653
101291.384216
101297.004956
101286.394242
101314.056128
101286.394242
101322.083667
101318.609858
101279.501409
101279.501409
101297.004956
101318.609858
101318.609858
101322.083667
101325.000000
101324.259281
101318.609858
101278.031653
101278.031653
101325.000000
101314.056128
101302.903290
101297.004956
101282.348571
101324.259281
101291.384216
101279.501409
101308.708604
101322.083667
101324.259281
101302.903290
101308.708604
101258.904592
101309.599422
101293.904781
101277.694760
101285.604451
101323.957636
101302.074210
101260.972881
101325.000000
101302.074210
101293.904781
101270.672703
101285.604451
101277.694760
101264.979502
101258.904592
101270.672703
101264.979502
101277.694760
101309.599422
101264.979502
101316.007581
101320.896039
101258.904592
101293.904781
101285.604451
101285.604451
101320.896039
101260.972881
101325.000000
101260.972881
101309.599422
101270.672703
101316.007581
101323.957636
101258.904592
101270.672703
101316.007581
101320.896039
101316.007581
101264.979502
101260.972881
101309.599422
101323.957636
101302.074210
101277.694760
101323.957636
101320.896039
101293.904781
101302.074210
101269.062064
101305.597421
101311.966167
101274.203389
101298.683461
101305.597421
101270.812501
101284.964579
101291.658717
101274.203389
101311.966167
101284.964579
101274.203389
101321.526732
101298.683461
101324.117825
101279.021665
101279.021665
101269.062064
101279.021664
101284.964579
101291.658717
101311.966167
101279.021664